
# Termodinamica
thermo        50  # Indica que voy a extraer la informacion de la termodinamica del sitema cada 100 pasos
#thermo_style  custom step temp pe ke press vol lx density # Digo exactamente que cantidades termodinamicas quiero conocer a lo largo de la simulacion
thermo_style  custom step time pe ke etotal evdwl ecoul ebond eangle edihed density press

# Dinamica
#dump 		  2 all custom 50 md.trayectoria_min_* id type x y z # Informacion de los datos individualmente (posicion), cada 1000 pasos

# Minimizacion
min_style cg                            # Version Polak-Ribiere del algoritmo de gradiente conjugado (CG)
minimize 1e-10 1e-10 100000 100000
WARNING: Using 'neigh_modify every 1 delay 0 check yes' setting during minimization (src/min.cpp:187)
Neighbor list info ...
  update every 1 steps, delay 0 steps, check yes
  max neighbors/atom: 2000, page size: 100000
  master list distance cutoff = 2.09
  ghost atom cutoff = 6
  binsize = 1.045, bins = 48 20 20
  1 neighbor lists, perpetual/occasional/extra = 1 0 0
  (1) pair lj/cut/coul/cut, perpetual
      attributes: half, newton on
      pair build: half/bin/newton
      stencil: half/bin/3d/newton
      bin: standard
Per MPI rank memory allocation (min/avg/max) = 14.58 | 14.58 | 14.58 Mbytes
Step Time PotEng KinEng TotEng E_vdwl E_coul E_bond E_angle E_dihed Density Press 
       0            0    1486.6175            0    1486.6175            0            0    809.19547    525.19829    152.22372   0.10919247   -7134.3796 
      50           50    205.51031            0    205.51031            0            0    5.7041286    36.588237    163.21794   0.10919247   -769.64366 
     100          100    166.95272            0    166.95272            0            0    1.0100552    11.982779    153.95989   0.10919247   -168.38574 
     150          150    146.15838            0    146.15838            0            0    1.0125083    9.2017082    135.94416   0.10919247   -87.396181 
     200          200    137.73428            0    137.73428            0            0   0.30656393      4.90466    132.52306   0.10919247   -45.711894 
     250          250    134.57721            0    134.57721            0            0   0.15864575    3.6385754    130.77999   0.10919247   -54.295258 
     300          300    134.03943            0    134.03943            0            0   0.13005338    3.3551012    130.55427   0.10919247   -34.980667 
     350          350    133.78128            0    133.78128            0            0     0.124238    3.2218549    130.43518   0.10919247   -13.871776 
     400          400    133.65424            0    133.65424            0            0   0.11136489    3.2059644    130.33691   0.10919247   -9.3741025 
     450          450    133.58019            0    133.58019            0            0    0.1175541    3.2563969    130.20624   0.10919247   -1.0491091 
     500          500    133.53054            0    133.53054            0            0    0.1166951    3.2463994    130.16745   0.10919247  -0.60591347 
     550          550    133.49177            0    133.49177            0            0   0.11838893    3.2368854     130.1365   0.10919247   0.62116249 
     600          600    133.43804            0    133.43804            0            0   0.12429351    3.2699671    130.04378   0.10919247    4.6483266 
     650          650    133.21374            0    133.21374            0            0   0.11586234    3.2134799    129.88439   0.10919247   -17.796142 
     700          700    133.02341            0    133.02341            0            0   0.12933095    3.2800453    129.61403   0.10919247   -32.910353 
     750          750    132.88067            0    132.88067            0            0   0.13500989    3.3823348    129.36333   0.10919247   -26.507809 
     800          800     132.6903            0     132.6903            0            0   0.13250571    3.3746884     129.1831   0.10919247   -22.267421 
     850          850    132.55467            0    132.55467            0            0   0.12096285     3.253909     129.1798   0.10919247   -7.2539291 
     900          900    132.51973            0    132.51973            0            0   0.11527194    3.2044689    129.19999   0.10919247   -2.2519773 
     950          950    132.48897            0    132.48897            0            0   0.11745816    3.2336446    129.13787   0.10919247  -0.94603411 
    1000         1000    132.47205            0    132.47205            0            0   0.11550377    3.2389451     129.1176   0.10919247    3.2248299 
    1050         1050    132.46213            0    132.46213            0            0   0.11492917    3.2317967    129.11541   0.10919247    3.8023171 
    1100         1100    132.45158            0    132.45158            0            0   0.11795495    3.2273194    129.10631   0.10919247     1.544426 
    1150         1150    132.42489            0    132.42489            0            0   0.11047606    3.1922556    129.12216   0.10919247   -3.4324604 
    1200         1200    132.40262            0    132.40262            0            0   0.11467714    3.2008613    129.08709   0.10919247   -5.2123085 
    1250         1250    132.38268            0    132.38268            0            0   0.11704389    3.2217094    129.04393   0.10919247   -3.3947379 
    1300         1300    132.36154            0    132.36154            0            0    0.1148665    3.2035995    129.04308   0.10919247   -2.1837692 
    1350         1350    132.35488            0    132.35488            0            0   0.11430773    3.1911689     129.0494   0.10919247   -2.3320016 
    1400         1400    132.33728            0    132.33728            0            0    0.1130687    3.1789938    129.04521   0.10919247  -0.64231729 
    1450         1450    132.31814            0    132.31814            0            0   0.11496407     3.204683    128.99849   0.10919247    2.5812691 
    1500         1500    132.29437            0    132.29437            0            0   0.11460789     3.205677    128.97409   0.10919247     3.547306 
    1550         1550    132.24902            0    132.24902            0            0   0.11613353    3.2018566    128.93103   0.10919247  -0.19518576 
    1600         1600    132.23901            0    132.23901            0            0   0.11486911    3.1865623    128.93758   0.10919247   0.92067275 
    1650         1650    132.23444            0    132.23444            0            0   0.11363893    3.1736354    128.94716   0.10919247  -0.95872043 
    1700         1700    132.22722            0    132.22722            0            0   0.11211683     3.160678    128.95442   0.10919247   -2.6905923 
    1750         1750    132.22227            0    132.22227            0            0   0.11454975    3.1807268    128.92699   0.10919247   -2.1097727 
    1800         1800    132.21538            0    132.21538            0            0   0.11557362    3.1890047     128.9108   0.10919247   -2.9019427 
    1850         1850    132.20421            0    132.20421            0            0   0.11661568    3.1902741    128.89732   0.10919247   -2.1375356 
    1900         1900    132.19644            0    132.19644            0            0   0.11356619    3.1705915    128.91229   0.10919247   -2.4081763 
    1950         1950    132.18677            0    132.18677            0            0   0.11264798    3.1620374    128.91209   0.10919247   -1.1904031 
    2000         2000    132.17593            0    132.17593            0            0   0.11379951    3.1862151    128.87592   0.10919247   0.43075486 
    2050         2050    132.16823            0    132.16823            0            0   0.11356139    3.1820341    128.87263   0.10919247    2.4359512 
    2100         2100    132.16516            0    132.16516            0            0   0.11507106    3.1838834     128.8662   0.10919247     1.160562 
    2150         2150    132.15977            0    132.15977            0            0   0.11470433    3.1704336    128.87464   0.10919247   0.91441386 
    2200         2200    132.15427            0    132.15427            0            0   0.11424321    3.1731332    128.86689   0.10919247  -0.70110981 
    2250         2250     132.1507            0     132.1507            0            0   0.11487054    3.1855091    128.85032   0.10919247   -1.2298052 
    2300         2300    132.14451            0    132.14451            0            0   0.11523882    3.1832011    128.84607   0.10919247   -2.6368129 
    2350         2350    132.14067            0    132.14067            0            0    0.1152364    3.1778831    128.84755   0.10919247   -1.6568398 
    2400         2400    132.13777            0    132.13777            0            0   0.11504718    3.1726731    128.85005   0.10919247   -1.0101612 
    2450         2450    132.13383            0    132.13383            0            0   0.11551879    3.1774766    128.84084   0.10919247  -0.24239316 
    2500         2500    132.13103            0    132.13103            0            0   0.11472887     3.175166    128.84114   0.10919247  -0.25784249 
    2550         2550    132.12644            0    132.12644            0            0   0.11423829     3.175534    128.83667   0.10919247   0.73708269 
    2600         2600    132.12166            0    132.12166            0            0   0.11462448    3.1786797    128.82835   0.10919247  -0.20868953 
    2650         2650    132.11956            0    132.11956            0            0   0.11434687    3.1798096     128.8254   0.10919247  -0.53558638 
    2700         2700    132.11741            0    132.11741            0            0   0.11428881    3.1732633    128.82986   0.10919247   -0.6941548 
    2750         2750    132.11502            0    132.11502            0            0   0.11463642    3.1689831     128.8314   0.10919247  -0.54921174 
    2800         2800    132.11321            0    132.11321            0            0   0.11545828    3.1741289    128.82362   0.10919247   -2.2669591 
    2850         2850    132.11012            0    132.11012            0            0   0.11749513    3.1847409    128.80788   0.10919247   -2.0256318 
    2900         2900    132.10673            0    132.10673            0            0   0.11519877     3.172906    128.81863   0.10919247   -0.3398692 
    2950         2950    132.10433            0    132.10433            0            0     0.113462     3.159225    128.83164   0.10919247  -0.36410954 
    3000         3000    132.10095            0    132.10095            0            0   0.11422101    3.1668144    128.81992   0.10919247    0.3976676 
    3050         3050    132.09779            0    132.09779            0            0   0.11442693    3.1702688     128.8131   0.10919247    1.7804121 
    3100         3100    132.09637            0    132.09637            0            0   0.11457546    3.1695558    128.81223   0.10919247    1.4312213 
    3150         3150    132.09466            0    132.09466            0            0   0.11440681    3.1677758    128.81248   0.10919247   0.63538518 
    3200         3200    132.09242            0    132.09242            0            0    0.1139257    3.1588207    128.81967   0.10919247  -0.57790031 
    3250         3250    132.09088            0    132.09088            0            0   0.11440642    3.1642534    128.81222   0.10919247  -0.36601914 
    3300         3300     132.0889            0     132.0889            0            0    0.1163989    3.1778966    128.79461   0.10919247  -0.86192906 
    3350         3350    132.08691            0    132.08691            0            0   0.11548344    3.1715349     128.7999   0.10919247   -1.6616763 
    3400         3400    132.08588            0    132.08588            0            0   0.11454899    3.1642623    128.80707   0.10919247   -1.2105812 
    3450         3450     132.0846            0     132.0846            0            0   0.11489296    3.1673178    128.80239   0.10919247  -0.29858341 
    3500         3500    132.08329            0    132.08329            0            0   0.11449398    3.1668039      128.802   0.10919247  -0.23718008 
    3550         3550    132.08187            0    132.08187            0            0   0.11509831    3.1699037    128.79687   0.10919247 -0.036922461 
    3600         3600    132.08033            0    132.08033            0            0   0.11448799    3.1679893    128.79785   0.10919247   0.89066064 
    3650         3650    132.07916            0    132.07916            0            0   0.11500686    3.1696962    128.79445   0.10919247   0.16796837 
    3700         3700     132.0781            0     132.0781            0            0   0.11435357    3.1659221    128.79782   0.10919247  -0.46455071 
    3750         3750    132.07716            0    132.07716            0            0   0.11423165    3.1637862    128.79914   0.10919247   -0.8388307 
    3800         3800    132.07642            0    132.07642            0            0    0.1147599    3.1661843    128.79547   0.10919247   -1.1227374 
    3850         3850    132.07552            0    132.07552            0            0   0.11532792    3.1746105    128.78558   0.10919247   -1.3199839 
    3900         3900    132.07411            0    132.07411            0            0   0.11466643    3.1725167    128.78693   0.10919247  -0.87660411 
    3950         3950    132.07302            0    132.07302            0            0    0.1141098    3.1608449    128.79807   0.10919247  -0.52235354 
    4000         4000    132.07181            0    132.07181            0            0    0.1140365    3.1601514    128.79762   0.10919247   0.31034838 
    4050         4050    132.07042            0    132.07042            0            0   0.11404402    3.1628034    128.79358   0.10919247   0.54692668 
    4100         4100     132.0697            0     132.0697            0            0   0.11411764    3.1648889    128.79069   0.10919247   0.57138618 
    4150         4150     132.0692            0     132.0692            0            0   0.11436828    3.1641043    128.79073   0.10919247   0.71533875 
    4200         4200    132.06822            0    132.06822            0            0    0.1141835    3.1592825    128.79475   0.10919247    0.3747133 
    4250         4250    132.06727            0    132.06727            0            0    0.1140293      3.15891    128.79433   0.10919247  -0.68379992 
    4300         4300    132.06655            0    132.06655            0            0   0.11476579    3.1657996    128.78599   0.10919247  -0.59890264 
    4350         4350    132.06571            0    132.06571            0            0   0.11536195    3.1679738    128.78238   0.10919247  -0.97496588 
    4400         4400    132.06515            0    132.06515            0            0    0.1148974    3.1621331    128.78812   0.10919247  -0.84571676 
    4450         4450    132.06473            0    132.06473            0            0   0.11439892    3.1601308     128.7902   0.10919247  -0.41990284 
    4500         4500    132.06416            0    132.06416            0            0   0.11431647    3.1609172    128.78892   0.10919247  -0.29905203 
    4550         4550     132.0635            0     132.0635            0            0   0.11510486    3.1645324    128.78387   0.10919247   0.18132931 
    4600         4600    132.06272            0    132.06272            0            0   0.11455362    3.1614325    128.78674   0.10919247    0.3482068 
    4650         4650    132.06219            0    132.06219            0            0   0.11439722    3.1620807    128.78571   0.10919247  0.081981088 
    4700         4700    132.06174            0    132.06174            0            0   0.11450686     3.162702    128.78453   0.10919247 -0.013557461 
    4750         4750    132.06132            0    132.06132            0            0   0.11445212    3.1605122    128.78636   0.10919247  -0.27262008 
    4800         4800    132.06095            0    132.06095            0            0   0.11429875    3.1594418    128.78721   0.10919247  -0.36856727 
    4850         4850    132.06063            0    132.06063            0            0   0.11479412    3.1631289    128.78271   0.10919247  -0.71407266 
    4900         4900    132.06009            0    132.06009            0            0   0.11512663    3.1655494    128.77941   0.10919247  -0.53043061 
    4950         4950    132.05948            0    132.05948            0            0   0.11439385    3.1614423    128.78364   0.10919247  -0.58125023 
    5000         5000    132.05903            0    132.05903            0            0   0.11388663    3.1573516    128.78779   0.10919247   -0.3283924 
    5050         5050    132.05839            0    132.05839            0            0   0.11415806    3.1592445    128.78499   0.10919247  0.056704679 
    5100         5100    132.05787            0    132.05787            0            0   0.11419209    3.1588719     128.7848   0.10919247   0.39368414 
    5150         5150    132.05752            0    132.05752            0            0   0.11427673    3.1587157    128.78452   0.10919247   0.54419754 
    5200         5200     132.0572            0     132.0572            0            0   0.11451615    3.1592008    128.78348   0.10919247   0.15773219 
    5250         5250    132.05675            0    132.05675            0            0   0.11401495    3.1554319    128.78731   0.10919247  -0.26938191 
    5300         5300    132.05645            0    132.05645            0            0   0.11414049    3.1577654    128.78455   0.10919247  -0.31714414 
    5350         5350    132.05609            0    132.05609            0            0   0.11480858    3.1622886    128.77899   0.10919247  -0.59650435 
    5400         5400    132.05575            0    132.05575            0            0   0.11464806    3.1608469    128.78026   0.10919247  -0.62582167 
    5450         5450    132.05555            0    132.05555            0            0   0.11441272    3.1580281    128.78311   0.10919247  -0.47176557 
    5500         5500    132.05533            0    132.05533            0            0   0.11414048    3.1583727    128.78282   0.10919247  -0.19752331 
    5550         5550    132.05506            0    132.05506            0            0   0.11456701    3.1591798    128.78131   0.10919247 -0.069816086 
    5600         5600    132.05476            0    132.05476            0            0   0.11443322    3.1589265     128.7814   0.10919247   0.21229779 
    5650         5650    132.05445            0    132.05445            0            0   0.11426701    3.1585296    128.78165   0.10919247   0.11179728 
    5700         5700    132.05425            0    132.05425            0            0    0.1144751    3.1594263    128.78035   0.10919247 -0.084905682 
    5750         5750    132.05407            0    132.05407            0            0   0.11429939    3.1576182    128.78215   0.10919247  -0.16185614 
    5800         5800    132.05389            0    132.05389            0            0   0.11435726     3.156884    128.78265   0.10919247  -0.24539975 
    5850         5850    132.05375            0    132.05375            0            0   0.11434584    3.1576196    128.78178   0.10919247  -0.37228343 
    5900         5900    132.05356            0    132.05356            0            0   0.11474592     3.160878    128.77793   0.10919247  -0.56420743 
    5950         5950    132.05328            0    132.05328            0            0   0.11472299    3.1605334    128.77803   0.10919247   -0.2966793 
    6000         6000    132.05305            0    132.05305            0            0   0.11414754    3.1566533    128.78225   0.10919247  -0.19721249 
    6050         6050    132.05283            0    132.05283            0            0   0.11429165    3.1565384      128.782   0.10919247  -0.11240983 
    6100         6100    132.05253            0    132.05253            0            0   0.11422959    3.1568551    128.78145   0.10919247    0.3496665 
    6150         6150    132.05236            0    132.05236            0            0    0.1142632    3.1569925     128.7811   0.10919247   0.27143986 
    6200         6200    132.05225            0    132.05225            0            0   0.11431563    3.1568678    128.78107   0.10919247   0.23216858 
    6250         6250    132.05208            0    132.05208            0            0   0.11427737    3.1552371    128.78257   0.10919247 -0.088707528 
    6300         6300    132.05191            0    132.05191            0            0   0.11415564    3.1549657    128.78279   0.10919247  -0.14931904 
    6350         6350    132.05178            0    132.05178            0            0   0.11433896    3.1575965    128.77984   0.10919247  -0.18877042 
    6400         6400    132.05162            0    132.05162            0            0    0.1145393    3.1600096    128.77707   0.10919247  -0.26868252 
    6450         6450    132.05148            0    132.05148            0            0   0.11443148     3.157222    128.77983   0.10919247  -0.40422265 
    6500         6500     132.0514            0     132.0514            0            0   0.11423129     3.155212    128.78195   0.10919247  -0.11184069 
    6550         6550    132.05126            0    132.05126            0            0   0.11405002    3.1557838    128.78143   0.10919247 -0.052146856 
    6600         6600    132.05111            0    132.05111            0            0   0.11436803    3.1576181    128.77913   0.10919247  -0.05083581 
    6650         6650    132.05093            0    132.05093            0            0   0.11410512    3.1557583    128.78107   0.10919247  0.032574505 
    6700         6700     132.0508            0     132.0508            0            0   0.11437988    3.1558418    128.78057   0.10919247  0.048951328 
    6750         6750    132.05068            0    132.05068            0            0   0.11436924    3.1569331    128.77938   0.10919247 -0.097130197 
    6800         6800    132.05059            0    132.05059            0            0    0.1142608    3.1560609    128.78026   0.10919247  -0.15149185 
    6850         6850    132.05051            0    132.05051            0            0   0.11420785    3.1551974     128.7811   0.10919247  -0.22758938 
    6900         6900    132.05043            0    132.05043            0            0   0.11453677    3.1572339    128.77866   0.10919247  -0.37991858 
    6950         6950    132.05032            0    132.05032            0            0   0.11447754     3.157517    128.77833   0.10919247  -0.33685087 
    7000         7000    132.05022            0    132.05022            0            0   0.11414489    3.1555731     128.7805   0.10919247   -0.3455325 
    7050         7050    132.05014            0    132.05014            0            0   0.11402711    3.1536155     128.7825   0.10919247  -0.06168991 
    7100         7100    132.05002            0    132.05002            0            0   0.11429402    3.1554621    128.78027   0.10919247  0.068055437 
    7150         7150    132.04994            0    132.04994            0            0   0.11422159    3.1551055    128.78061   0.10919247   0.16470266 
    7200         7200    132.04987            0    132.04987            0            0    0.1141023    3.1550119    128.78076   0.10919247   0.16560314 
    7250         7250    132.04982            0    132.04982            0            0   0.11423229    3.1558011    128.77979   0.10919247  0.082210669 
    7300         7300    132.04973            0    132.04973            0            0   0.11400147    3.1539442    128.78178   0.10919247 -0.056957032 
    7350         7350    132.04967            0    132.04967            0            0   0.11418547    3.1544064    128.78108   0.10919247  -0.16132327 
    7400         7400     132.0496            0     132.0496            0            0   0.11447554    3.1562664    128.77886   0.10919247  -0.26258749 
    7450         7450    132.04953            0    132.04953            0            0   0.11444126    3.1560036    128.77908   0.10919247  -0.35487238 
    7500         7500    132.04947            0    132.04947            0            0   0.11426517     3.154545    128.78066   0.10919247  -0.28391045 
    7550         7550    132.04942            0    132.04942            0            0   0.11428158    3.1546236    128.78052   0.10919247 -0.074498007 
    7600         7600    132.04936            0    132.04936            0            0    0.1141884    3.1550175    128.78016   0.10919247 -0.072954132 
    7650         7650    132.04929            0    132.04929            0            0   0.11428371    3.1552401    128.77977   0.10919247 0.0044717268 
    7700         7700    132.04923            0    132.04923            0            0   0.11410499    3.1543737    128.78075   0.10919247  0.032726257 
    7750         7750    132.04918            0    132.04918            0            0   0.11426928    3.1552383    128.77967   0.10919247       -0.149 
    7800         7800    132.04913            0    132.04913            0            0   0.11416697    3.1544553    128.78051   0.10919247  -0.15224237 
    7850         7850    132.04909            0    132.04909            0            0   0.11418557    3.1539382    128.78097   0.10919247  -0.20457745 
    7900         7900    132.04906            0    132.04906            0            0   0.11426045    3.1544597    128.78034   0.10919247   -0.2581767 
    7950         7950    132.04901            0    132.04901            0            0    0.1144431    3.1562165    128.77835   0.10919247  -0.15034014 
    8000         8000    132.04896            0    132.04896            0            0   0.11432671    3.1552166    128.77941   0.10919247 -0.086792427 
    8050         8050    132.04891            0    132.04891            0            0   0.11406144    3.1533402    128.78151   0.10919247 -0.058372493 
    8100         8100    132.04887            0    132.04887            0            0   0.11413612    3.1535321     128.7812   0.10919247 -0.020055284 
    8150         8150    132.04881            0    132.04881            0            0   0.11407224    3.1538033    128.78093   0.10919247   0.13308344 
    8200         8200    132.04877            0    132.04877            0            0   0.11422863     3.154285    128.78026   0.10919247   0.12144685 
    8250         8250    132.04871            0    132.04871            0            0   0.11412905    3.1538987    128.78068   0.10919247   0.18300199 
    8300         8300    132.04867            0    132.04867            0            0   0.11416987     3.153189    128.78131   0.10919247 -0.045889956 
    8350         8350    132.04864            0    132.04864            0            0   0.11400912    3.1525382    128.78209   0.10919247 -0.050579557 
    8400         8400    132.04861            0    132.04861            0            0    0.1141802    3.1540762    128.78035   0.10919247  -0.12376156 
    8450         8450    132.04858            0    132.04858            0            0   0.11428362     3.155061    128.77923   0.10919247  -0.22479243 
    8500         8500    132.04854            0    132.04854            0            0    0.1143949    3.1543864    128.77976   0.10919247  -0.18808952 
    8550         8550    132.04852            0    132.04852            0            0   0.11411595    3.1530722    128.78133   0.10919247  -0.11087369 
    8600         8600    132.04849            0    132.04849            0            0   0.11411044    3.1535425    128.78084   0.10919247  -0.04262814 
    8650         8650    132.04846            0    132.04846            0            0   0.11424147     3.154029    128.78019   0.10919247  -0.06951491 
    8700         8700    132.04844            0    132.04844            0            0   0.11414901    3.1534672    128.78082   0.10919247 -0.057719609 
    8750         8750    132.04842            0    132.04842            0            0   0.11413546    3.1531976    128.78108   0.10919247  0.046839308 
    8800         8800    132.04839            0    132.04839            0            0   0.11415534    3.1543407     128.7799   0.10919247  0.010683658 
    8850         8850    132.04837            0    132.04837            0            0   0.11410797    3.1535212    128.78075   0.10919247 -0.070936091 
    8900         8900    132.04836            0    132.04836            0            0   0.11413427    3.1531881    128.78104   0.10919247  -0.17179339 
    8950         8950    132.04834            0    132.04834            0            0   0.11432465    3.1542318    128.77978   0.10919247  -0.21900158 
    9000         9000    132.04831            0    132.04831            0            0   0.11426556    3.1541147    128.77993   0.10919247 -0.068879286 
    9050         9050    132.04829            0    132.04829            0            0   0.11416341    3.1536568    128.78047   0.10919247  -0.17484996 
    9100         9100    132.04826            0    132.04826            0            0   0.11398438    3.1522048    128.78208   0.10919247   -0.1113937 
    9150         9150    132.04823            0    132.04823            0            0   0.11409562    3.1528172    128.78132   0.10919247   0.13847052 
    9200         9200    132.04821            0    132.04821            0            0    0.1141056     3.153155    128.78095   0.10919247  0.016730584 
    9250         9250    132.04818            0    132.04818            0            0    0.1141169    3.1533645     128.7807   0.10919247  0.092588571 
    9300         9300    132.04817            0    132.04817            0            0   0.11410573       3.1531    128.78096   0.10919247  0.053735957 
    9350         9350    132.04815            0    132.04815            0            0   0.11409183    3.1523349    128.78172   0.10919247  0.042874121 
    9400         9400    132.04813            0    132.04813            0            0   0.11408009    3.1527186    128.78133   0.10919247   -0.0476764 
    9450         9450    132.04812            0    132.04812            0            0   0.11417571    3.1536031    128.78034   0.10919247 -0.083782394 
    9500         9500     132.0481            0     132.0481            0            0   0.11427206    3.1536797    128.78014   0.10919247  -0.11216619 
    9550         9550    132.04809            0    132.04809            0            0    0.1141947    3.1528874      128.781   0.10919247  -0.11265188 
    9600         9600    132.04808            0    132.04808            0            0   0.11413791    3.1527517    128.78119   0.10919247 -0.073498882 
    9650         9650    132.04806            0    132.04806            0            0   0.11414952     3.152933    128.78098   0.10919247 -0.074700242 
    9700         9700    132.04805            0    132.04805            0            0    0.1141612    3.1529937     128.7809   0.10919247  0.002494752 
    9750         9750    132.04804            0    132.04804            0            0   0.11407338    3.1526438    128.78132   0.10919247 0.0092417672 
    9800         9800    132.04803            0    132.04803            0            0   0.11418287    3.1529975    128.78085   0.10919247 -0.045776421 
    9850         9850    132.04802            0    132.04802            0            0   0.11410838     3.152724    128.78119   0.10919247 -0.073014231 
    9900         9900    132.04801            0    132.04801            0            0    0.1141237    3.1525645    128.78132   0.10919247  -0.07463199 
    9950         9950      132.048            0      132.048            0            0   0.11413518    3.1528061    128.78106   0.10919247 -0.064668596 
   10000        10000    132.04799            0    132.04799            0            0   0.11419555    3.1535917    128.78021   0.10919247  -0.13599089 
   10050        10050    132.04798            0    132.04798            0            0   0.11414294    3.1532309    128.78061   0.10919247 0.0034260875 
   10100        10100    132.04797            0    132.04797            0            0   0.11404047    3.1521239     128.7818   0.10919247 -0.025293921 
   10150        10150    132.04795            0    132.04795            0            0   0.11406026    3.1521196    128.78177   0.10919247  0.011680903 
   10200        10200    132.04794            0    132.04794            0            0   0.11402412    3.1524477    128.78147   0.10919247  0.027412333 
   10250        10250    132.04793            0    132.04793            0            0   0.11411011    3.1526416    128.78118   0.10919247  0.095102831 
   10300        10300    132.04791            0    132.04791            0            0   0.11412371    3.1525709    128.78122   0.10919247  0.094285997 
   10350        10350    132.04791            0    132.04791            0            0   0.11407366    3.1521086    128.78172   0.10919247  0.054357305 
   10400        10400     132.0479            0     132.0479            0            0    0.1140316    3.1517149    128.78215   0.10919247 -0.004556708 
   10450        10450    132.04789            0    132.04789            0            0   0.11412791    3.1527077    128.78105   0.10919247 -0.059916286 
   10500        10500    132.04788            0    132.04788            0            0   0.11412029    3.1528135    128.78095   0.10919247  -0.13120047 
   10550        10550    132.04787            0    132.04787            0            0   0.11416946    3.1526277    128.78108   0.10919247 -0.066351313 
   10600        10600    132.04787            0    132.04787            0            0    0.1140916    3.1521917    128.78158   0.10919247 -0.063011806 
   10650        10650    132.04786            0    132.04786            0            0   0.11408342    3.1522066    128.78157   0.10919247 -0.041514322 
   10700        10700    132.04786            0    132.04786            0            0   0.11413804    3.1525249    128.78119   0.10919247 -0.027365115 
   10750        10750    132.04785            0    132.04785            0            0   0.11409151    3.1521267    128.78163   0.10919247  0.022691935 
   10800        10800    132.04785            0    132.04785            0            0   0.11407479    3.1521984    128.78158   0.10919247 0.0085314594 
   10850        10850    132.04784            0    132.04784            0            0   0.11409652     3.152595    128.78115   0.10919247 -0.058389734 
   10900        10900    132.04784            0    132.04784            0            0   0.11406473    3.1522784    128.78149   0.10919247 -0.040978153 
   10950        10950    132.04783            0    132.04783            0            0    0.1140915    3.1520844    128.78166   0.10919247 -0.082835085 
   11000        11000    132.04783            0    132.04783            0            0   0.11414312    3.1525507    128.78114   0.10919247  -0.08385491 
   11050        11050    132.04782            0    132.04782            0            0   0.11412783    3.1526266    128.78107   0.10919247 -0.077968426 
   11100        11100    132.04782            0    132.04782            0            0   0.11406474    3.1523193    128.78144   0.10919247 -0.076893841 
   11150        11150    132.04782            0    132.04782            0            0   0.11397675    3.1516664    128.78217   0.10919247  -0.02784978 
   11200        11200    132.04781            0    132.04781            0            0   0.11404988    3.1519999    128.78176   0.10919247  0.041039149 
   11250        11250    132.04781            0    132.04781            0            0   0.11409344    3.1521858    128.78153   0.10919247  0.038968537 
   11300        11300    132.04779            0    132.04779            0            0   0.11409535    3.1520632    128.78164   0.10919247  0.054554889 
   11350        11350    132.04779            0    132.04779            0            0   0.11406633    3.1519879    128.78174   0.10919247  0.029187126 
   11400        11400    132.04779            0    132.04779            0            0   0.11407617    3.1517362    128.78197   0.10919247  0.013376497 
   11450        11450    132.04778            0    132.04778            0            0    0.1140395    3.1517729    128.78197   0.10919247 0.0086696004 
   11500        11500    132.04778            0    132.04778            0            0   0.11410257    3.1522955    128.78138   0.10919247 -0.017361217 
   11550        11550    132.04778            0    132.04778            0            0   0.11411556    3.1524648     128.7812   0.10919247 -0.061699918 
   11600        11600    132.04777            0    132.04777            0            0   0.11412279     3.152095    128.78156   0.10919247 -0.029316375 
   11650        11650    132.04777            0    132.04777            0            0   0.11409286    3.1518852    128.78179   0.10919247 -0.034965817 
   11700        11700    132.04777            0    132.04777            0            0   0.11406816    3.1519288    128.78177   0.10919247 -0.023874981 
   11750        11750    132.04777            0    132.04777            0            0   0.11410518    3.1520111    128.78165   0.10919247 -0.0071445195 
   11800        11800    132.04776            0    132.04776            0            0   0.11405558    3.1518479    128.78186   0.10919247 -0.0078281465 
   11850        11850    132.04776            0    132.04776            0            0   0.11409178    3.1520483    128.78162   0.10919247 -0.00021582298 
   11900        11900    132.04776            0    132.04776            0            0   0.11407834    3.1519256    128.78176   0.10919247 -0.026687443 
   11950        11950    132.04776            0    132.04776            0            0   0.11406903    3.1518693    128.78182   0.10919247 -0.027563635 
   12000        12000    132.04776            0    132.04776            0            0   0.11407965    3.1519965    128.78168   0.10919247 -0.043214262 
   12050        12050    132.04775            0    132.04775            0            0   0.11410543    3.1522355    128.78141   0.10919247 -0.061258466 
   12100        12100    132.04775            0    132.04775            0            0   0.11409771     3.152059    128.78159   0.10919247 -0.015552878 
   12150        12150    132.04775            0    132.04775            0            0   0.11404231    3.1515546    128.78215   0.10919247 -0.0046876854 
   12200        12200    132.04775            0    132.04775            0            0   0.11404285    3.1516134    128.78209   0.10919247  0.013376921 
   12250        12250    132.04774            0    132.04774            0            0   0.11404778    3.1517992     128.7819   0.10919247  0.016161144 
   12300        12300    132.04774            0    132.04774            0            0   0.11407702    3.1518846    128.78178   0.10919247  0.029777073 
   12350        12350    132.04774            0    132.04774            0            0   0.11408141    3.1518173    128.78184   0.10919247  0.022713631 
   12400        12400    132.04774            0    132.04774            0            0   0.11405541    3.1515936    128.78209   0.10919247 0.0022763398 
   12450        12450    132.04773            0    132.04773            0            0   0.11403847    3.1514361    128.78226   0.10919247 -0.0060640427 
   12500        12500    132.04773            0    132.04773            0            0    0.1140765    3.1518025    128.78185   0.10919247 -0.018264921 
   12550        12550    132.04773            0    132.04773            0            0   0.11409014     3.151942     128.7817   0.10919247 -0.027728696 
   12600        12600    132.04773            0    132.04773            0            0   0.11411416    3.1519723    128.78164   0.10919247 -0.033683898 
   12647        12647    132.04773            0    132.04773            0            0   0.11406964     3.151672    128.78199   0.10919247 -0.029306245 
Loop time of 2.3333 on 1 procs for 12647 steps with 171 atoms

92.4% CPU use with 1 MPI tasks x 1 OpenMP threads

Minimization stats:
  Stopping criterion = energy tolerance
  Energy initial, next-to-last, final = 
       1486.6174693861   132.047727801755   132.047727788905
  Force two-norm initial, final = 1553.0704 0.004072876
  Force max component initial, final = 581.30715 0.00066199182
  Final line search alpha, max atom move = 1.0000000 0.00066199182
  Iterations, force evaluations = 12647 25282

MPI task timing breakdown:
Section |  min time  |  avg time  |  max time  |%varavg| %total
---------------------------------------------------------------
Pair    | 0.035841   | 0.035841   | 0.035841   |   0.0 |  1.54
Bond    | 2.0954     | 2.0954     | 2.0954     |   0.0 | 89.80
Neigh   | 0.00099301 | 0.00099301 | 0.00099301 |   0.0 |  0.04
Comm    | 0.015942   | 0.015942   | 0.015942   |   0.0 |  0.68
Output  | 0.071399   | 0.071399   | 0.071399   |   0.0 |  3.06
Modify  | 0          | 0          | 0          |   0.0 |  0.00
Other   |            | 0.1138     |            |       |  4.88

Nlocal:        171.000 ave         171 max         171 min
Histogram: 1 0 0 0 0 0 0 0 0 0
Nghost:        26.0000 ave          26 max          26 min
Histogram: 1 0 0 0 0 0 0 0 0 0
Neighs:        29.0000 ave          29 max          29 min
Histogram: 1 0 0 0 0 0 0 0 0 0

Total # of neighbors = 29
Ave neighs/atom = 0.16959064
Ave special neighs/atom = 11.824561
Neighbor list builds = 17
Dangerous builds = 0

# Nuevo sistema
write_data   sistema_minimizado.data
System init for write_data ...



Total wall time: 0:00:02
