# -- pre equilibrio --

timestep                0.001
reset_timestep          0

fix                             1 all npt temp 300 300 1 iso 0.0 0.0 1 drag 2
thermo                          100   # imprima cada 1000 puntos
thermo_style            custom step time temp pxx pyy pzz lx ly lz
thermo_style            custom step time pe ke etotal evdwl ecoul ebond eangle edihed density temp press vol pxx pyy pzz lx ly lz
run                             100000
Neighbor list info ...
  update every 1 steps, delay 10 steps, check yes
  max neighbors/atom: 2000, page size: 100000
  master list distance cutoff = 2.09
  ghost atom cutoff = 6
  binsize = 1.045, bins = 18 11 10
  1 neighbor lists, perpetual/occasional/extra = 1 0 0
  (1) pair lj/cut/coul/cut, perpetual
      attributes: half, newton on
      pair build: half/bin/newton
      stencil: half/bin/3d/newton
      bin: standard
Per MPI rank memory allocation (min/avg/max) = 13.38 | 13.38 | 13.38 Mbytes
1Step Time PotEng KinEng TotEng E_vdwl E_coul E_bond E_angle E_dihed Density Temp Press Volume Pxx Pyy Pzz Lx Ly Lz 
       0            0    127.25386     153.0974    280.35126            0            0   0.10458086    3.0442084    124.10507    1.0725116    302.12356    3477.9212    2036.2012    5827.7667    2087.5593    2518.4376    17.802743    11.440123    9.9977688 
     100          0.1    128.13864    152.07218    280.21082            0            0   0.96873942    3.0590961    124.11081    1.0632904    300.10039   -3014.5081    2053.8598   -1322.7775   -3781.0433   -3939.7035    17.854058    11.473099    10.026587 
     200          0.2    267.07706    152.48688    419.56394 -0.034549833    139.56757   0.31838231    3.1079625    124.11769    1.0692563    300.91876    2452.7759    2042.4004    1977.7406    2342.3584    3038.2287    17.820791    11.451721    10.007905 
     300          0.3    128.00277    152.12458    280.12736            0            0   0.68599866    3.1910284    124.12575    1.0667968     300.2038   -967.02888    2047.1091   -514.01875     -1143.97   -1243.0979    17.834476    11.460515     10.01559 
     400          0.4    128.09083    152.00456    280.09539            0            0   0.64786408    3.3080062    124.13496    1.0688278    299.96694    249.40757    2043.2192    88.171005    356.14317    303.90854    17.823172    11.453251    10.009242 
     500          0.5    128.44341    151.65037    280.09378            0            0    0.8390867    3.4589899    124.14534    1.0690609    299.26798    234.69895    2042.7736   -545.88237    678.36722      571.612    17.821876    11.452418    10.008514 
     600          0.6    128.98409    151.11408    280.09817            0            0     1.183792    3.6434382    124.15686    1.0681314    298.20965   -576.62167    2044.5512   -1980.0953     238.3415    11.888823    17.827044    11.455739    10.011416 
     700          0.7    129.32475    150.79033    280.11508            0            0    1.2938732    3.8613497    124.16953     1.069996    297.57076    522.71426    2040.9884   -1483.8616    1620.1442    1431.8602    17.816683    11.449081    10.005598 
     800          0.8    130.00844    150.13693    280.14537            0            0    1.7127497    4.1123484    124.18334    1.0689092    296.28135   -398.09677    2043.0635   -3019.2478    1070.3522     754.6052    17.822719     11.45296    10.008987 
     900          0.9    130.56153    149.63228    280.19381            0            0    1.9672779    4.3959877    124.19827    1.0698758    295.28546    84.942107    2041.2178   -3132.9285    1857.2918     1530.463    17.817351     11.44951    10.005973 
    1000            1    131.24514    149.02638    280.27153            0            0    2.3186844     4.712145    124.21432    1.0701125    294.08978    67.934941    2040.7663   -3743.8407    2162.8769    1784.7686    17.816037    11.448666    10.005235 
    1100          1.1    132.02354    148.34875    280.37229            0            0    2.7319368    5.0601446    124.23146    1.0699233    292.75254   -241.17826    2041.1272   -4642.3263    2185.5231    1733.2683    17.817087    11.449341    10.005824 
    1200          1.2    132.75108    147.75045    280.50153            0            0      3.06163    5.4397498     124.2497    1.0708122    291.57184    186.49215    2039.4328   -4788.1899    2906.1583     2441.508    17.812156    11.446172    10.003055 
    1300          1.3    133.63088    147.02853    280.65941            0            0    3.5114439    5.8504297    124.26901    1.0705467    290.14721   -176.08663    2039.9385   -5723.2867    2867.8039     2327.223    17.813628    11.447118    10.003882 
    1400          1.4    134.47643     146.3703    280.84672            0            0     3.895427    6.2916244    124.28937    1.0710954    288.84824    17.592863    2038.8935   -6086.6148    3354.3835    2785.0099    17.810585    11.445163    10.002173 
    1500          1.5    135.38663    145.68075    281.06738            0            0     4.312883    6.7629581    124.31079    1.0713458    287.48748    6.6650583    2038.4169   -6646.2972    3639.8425    3026.4498    17.809198    11.444271    10.001394 
    1600          1.6    136.34321    144.97566    281.31887            0            0    4.7462733    7.2637201    124.33322    1.0714399    286.09605   -111.79264     2038.238   -7304.0154    3816.5911    3152.0464    17.808676    11.443936    10.001101 
    1700          1.7    137.28969    144.31355    281.60324            0            0    5.1395802    7.7934483    124.35666    1.0719523    284.78944    55.266856    2037.2637   -7661.4253    4258.8881    3568.3378    17.805838    11.442112    9.9995073 
    1800          1.8    138.30109    143.61878    281.91986            0            0    5.5684943    8.3515008    124.38109    1.0720121    283.41838    -87.83498      2037.15   -8320.9974    4398.8116    3658.6809    17.805507      11.4419    9.9993213 
    1900          1.9    139.30351    142.96463    282.26813            0            0    5.9598052    8.9372171    124.40648    1.0723957    282.12747   -10.190688    2036.4212   -8744.9515    4742.0592    3972.3202    17.803384    11.440535    9.9981289 
    2000            2     140.3339    142.31486    282.64876            0            0    6.3510557    9.5500198    124.43282    1.0726583    280.84521   -16.053046    2035.9227   -9240.9645    4998.5217    4194.2837    17.801931    11.439601     9.997313 
    2100          2.1    141.38324    141.67666    283.05989            0            0    6.7340036    10.189149    124.46008    1.0728642    279.58578   -61.560154    2035.5321   -9764.4926    5209.8973    4369.9148    17.800792     11.43887    9.9966736 
    2200          2.2    142.42947    141.07206    283.50152            0            0    7.0872574    10.853962    124.48825    1.0732334    278.39266    3.7296495    2034.8318   -10162.759    5519.2983    4654.6495    17.798751    11.437558    9.9955271 
    2300          2.3    143.50055    140.47191    283.97246            0            0    7.4395519    11.543713    124.51728     1.073426    277.20832   -52.786145    2034.4667   -10671.501    5705.1832    4807.9596    17.797686    11.436874    9.9949291 
    2400          2.4    144.56772    139.90378     284.4715            0            0    7.7629118    12.257638    124.54717    1.0737485    276.08717   -21.755833    2033.8557   -11078.315    5966.8208     5046.227    17.795904    11.435729    9.9939285 
    2500          2.5    145.64546    139.35257    284.99803            0            0     8.072577    12.995001    124.57788    1.0740233     274.9994   -24.683639    2033.3354   -11506.413    6188.5248    5243.8375    17.794386    11.434753    9.9930761 
    2600          2.6    146.73041    138.82002    285.55043            0            0      8.36605    13.754969    124.60939    1.0742789    273.94846    -42.24961    2032.8515   -11936.277    6388.7316    5420.7963    17.792975    11.433846    9.9922834 
    2700          2.7    147.81495    138.31293    286.12788            0            0    8.6365215    14.536754    124.64168       1.0746    272.94778   -16.792539    2032.2441   -12309.402    6622.3431    5636.6812    17.791203    11.432707    9.9912881 
    2800          2.8     148.9107    137.81844    286.72914            0            0    8.8964914    15.339509     124.6747    1.0748539    271.97195   -39.181361    2031.7639   -12718.258    6803.0119    5797.7024    17.789801    11.431807    9.9905012 
    2900          2.9    150.00772     137.3453    287.35302            0            0    9.1369124     16.16237    124.70843    1.0751618    271.03824   -26.882208    2031.1822   -13079.178    7009.3637    5989.1674    17.788103    11.430716    9.9895475 
    3000            3    151.11304     136.8856    287.99864            0            0    9.3657112    17.004475    124.74285     1.075453    270.13106   -28.351594    2030.6322    -13441.65    7195.4609    6161.1346    17.786498    11.429684    9.9886458 
    3100          3.1    152.22681    136.43799     288.6648            0            0    9.5839759    17.864913    124.77793    1.0757401    269.24776   -35.234271    2030.0902     -13797.5    7369.4394    6322.3574    17.784915    11.428667    9.9877571 
    3200          3.2    153.34781    136.00292    289.35074            0            0    9.7914133    18.742782    124.81362    1.0760559    268.38919   -25.404981    2029.4945   -14124.545     7552.534    6495.7965    17.783175    11.427549    9.9867801 
    3300          3.3    154.48222    135.57333    290.05555            0            0    9.9951709    19.637149     124.8499    1.0763486    267.54144   -34.374229    2028.9425   -14459.326    7711.2333    6644.9699    17.781563    11.426513    9.9858744 
    3400          3.4    155.62792    135.15056    290.77849            0            0    10.194121    20.547069    124.88673    1.0766664    266.70713     -29.6105    2028.3437   -14769.154    7876.7133    6803.6091    17.779813    11.425388     9.984892 
    3500          3.5     156.7894    134.72958    291.51898            0            0    10.393717    21.471591    124.92409    1.0769812    265.87636   -30.415956    2027.7507   -15074.153     8030.916    6951.9895     17.77808    11.424275    9.9839189 
    3600          3.6    157.96832    134.30811    292.27643            0            0     10.59664    22.409739    124.96194    1.0772987    265.04463   -33.224767    2027.1532   -15371.208    8177.5389     7093.995    17.776334    11.423153    9.9829381 
    3700          3.7    159.16576     133.8847    293.05046            0            0    10.804981     23.36054    125.00024    1.0776315    264.20906   -29.538484    2026.5271   -15652.191    8324.9761    7238.5997    17.774504    11.421977    9.9819102 
    3800          3.8    160.38548    133.45526    293.84074            0            0    11.023514    24.323005    125.03896    1.0779597    263.36161   -33.237604    2025.9101   -15931.831    8460.3916    7371.7262      17.7727    11.420817    9.9808971 
    3900          3.9    161.62783     133.0192    294.64703            0            0    11.253621    25.296139    125.07807    1.0783023    262.50109   -31.500682    2025.2664   -16197.648    8596.3179    7506.8282    17.770817    11.419608      9.97984 
    4000            4    162.89547    132.57377    295.46924            0            0    11.499002    26.278946    125.11753    1.0786483    261.62206   -32.008393    2024.6169   -16458.101    8725.8357    7636.2402    17.768917    11.418387    9.9787729 
    4100          4.1     164.1897    132.11757    296.30728            0            0    11.761988     27.27042     125.1573        1.079    260.72181   -33.254086    2023.9568   -16712.298     8850.761    7761.7751    17.766986    11.417146    9.9776884 
    4200          4.2    165.51131    131.64988    297.16119            0            0    12.044404    28.269559    125.19735    1.0793626    259.79886   -31.969624     2023.277    -16957.56    8974.5877    7887.0635    17.764997    11.415867    9.9765712 
    4300          4.3    166.86177    131.16927    298.03104            0            0    12.348772    29.275358    125.23764    1.0797281    258.85042   -33.581774    2022.5921   -17200.105    9092.5694    8006.7906    17.762992    11.414579    9.9754454 
    4400          4.4    168.24092    130.67603    298.91695            0            0    12.675963    30.286814    125.27814     1.080104    257.87706   -33.037296    2021.8881   -17435.454    9209.9064    8126.4362    17.760931    11.413254    9.9742878 
    4500          4.5    169.64914    130.16994    299.81908            0            0    13.027398    31.302926    125.31881     1.080486    256.87834   -33.389165    2021.1733   -17667.418    9324.1128    8243.1379    17.758837    11.411909    9.9731123 
    4600          4.6    171.08593    129.65164    300.73757            0            0    13.403602    32.322699    125.35962     1.080875    255.85553   -34.006097    2020.4459   -17896.047    9436.1992    8357.8293    17.756707     11.41054    9.9719158 
    4700          4.7    172.55024    129.12236     301.6726            0            0     13.80456     33.34514    125.40054    1.0812728    254.81103   -33.629448    2019.7027   -18120.746    9547.7692    8472.0889    17.754529    11.409141    9.9706928 
    4800          4.8    174.04096    128.58333    302.62429            0            0    14.230175    34.369267    125.44152    1.0816761    253.74731   -34.381489    2018.9495   -18344.381     9657.219    8584.0172    17.752322    11.407722    9.9694532 
    4900          4.9    175.55602    128.03674    303.59276            0            0    14.679386    35.394101    125.48253    1.0820879    252.66866   -34.270662    2018.1811   -18565.596    9766.8392    8695.9448     17.75007    11.406275    9.9681884 
    5000            5    177.09325    127.48481    304.57806            0            0    15.151037    36.418675    125.52354    1.0825062    251.57948   -34.509276    2017.4013   -18786.309    9875.8773     8806.904    17.747783    11.404806    9.9669043 
    5100          5.1    178.64989    126.93032    305.58021            0            0    15.643345    37.442029    125.56452    1.0829312    250.48524   -34.835074    2016.6096   -19006.915    9984.9701    8917.4398    17.745461    11.403314    9.9656004 
    5200          5.2    180.22271    126.37642    306.59913            0            0    16.154075    38.463214    125.60542    1.0833633    249.39217   -34.762675    2015.8053   -19227.563    10094.955    9028.3208    17.743102    11.401797    9.9642753 
    5300          5.3    181.80827    125.82641    307.63468            0            0    16.680747    39.481291    125.64623     1.083801    248.30679   -35.122695    2014.9911   -19449.735     10205.41    9138.9567    17.740712    11.400262    9.9629336 
    5400          5.4    183.40258    125.28407    308.68664            0            0    17.220344    40.495333     125.6869    1.0842453    247.23652   -35.130601    2014.1655   -19673.231     10317.43    9250.4094    17.738289    11.398705    9.9615727 
    5500          5.5    185.00151    124.75318    309.75469            0            0    17.769688    41.504422     125.7274     1.084695    246.18886   -35.267694    2013.3305    -19899.13    10430.896    9362.4313    17.735838     11.39713    9.9601959 
    5600          5.6    186.60064    124.23778    310.83843            0            0    18.325284    42.507656     125.7677    1.0851499    245.17178   -35.426321    2012.4864   -20127.877    10546.228      9475.37    17.733359    11.395537    9.9588039 
    5700          5.7    188.19535      123.742    311.93735            0            0    18.883433     43.50414    125.80778    1.0856099     244.1934   -35.419458    2011.6336   -20359.805    10663.903    9589.6434    17.730854    11.393927    9.9573969 
    5800          5.8    189.78095    123.26993    313.05088            0            0    19.440365    44.492996    125.84759    1.0860742     243.2618   -35.572955    2010.7737   -20595.743    10783.893     9705.131    17.728327    11.392303    9.9559779 
    5900          5.9    191.35264    122.82569    314.17833            0            0    19.992174    45.473356    125.88711    1.0865427    242.38513   -35.578395    2009.9066   -20835.832    10906.747    9822.3498    17.725778    11.390665    9.9545466 
    6000            6    192.90569    122.41325    315.31894            0            0    20.535013    46.444365    125.92631    1.0870148    241.57124   -35.627319    2009.0338   -21080.689    11032.518    9941.2899    17.723212    11.389016    9.9531054 
    6100          6.1    194.43542    122.03647    316.47189            0            0    21.065076    47.405184    125.96516      1.08749    240.82768   -35.676487    2008.1559   -21330.651    11161.455    10062.167     17.72063    11.387357    9.9516554 
    6200          6.2    195.93731    121.69895    317.63625            0            0    21.578689    48.354983    126.00364     1.087968    240.16161   -35.654378    2007.2735   -21585.982    11293.811    10185.208    17.718034    11.385689    9.9501977 
    6300          6.3    197.40705    121.40401    318.81106            0            0    22.072399    49.292951     126.0417    1.0884482    239.57958   -35.689571     2006.388   -21847.107    11429.617    10310.421    17.715428    11.384014    9.9487342 
    6400          6.4    198.84061    121.15467    319.99528            0            0    22.542988    50.218288    126.07933    1.0889303    239.08753   -35.661478    2005.4997   -22114.148    11569.116    10438.048    17.712813    11.382334    9.9472658 
    6500          6.5    200.23429    120.95353    321.18782            0            0    22.987572    51.130211    126.11651    1.0894138     238.6906   -35.646888    2004.6097    -22387.38    11712.329     10568.11    17.710193     11.38065    9.9457941 
    6600          6.6    201.58477    120.80278    322.38755            0            0    23.403624    52.027951    126.15319    1.0898982    238.39311   -35.629092    2003.7187   -22666.932    11859.338    10700.707    17.707569    11.378964    9.9443204 
    6700          6.7    202.88915    120.70415     323.5933            0            0    23.789028    52.910756    126.18937    1.0903832    238.19848    -35.58124    2002.8274   -22952.868    12010.199    10835.925    17.704943    11.377276    9.9428457 
    6800          6.8    204.14502    120.65886    324.80388            0            0    24.142121    53.777891      126.225    1.0908684     238.1091   -35.554557    2001.9367   -23245.277    12164.864     10973.75    17.702318    11.375589    9.9413716 
    6900          6.9    205.35043    120.66761    326.01804            0            0    24.461705    54.628639    126.26008    1.0913533    238.12638   -35.502286    2001.0471   -23544.093     12323.34    11114.247    17.699695    11.373904    9.9398988 
    7000            7    206.50396    120.73059    327.23455            0            0    24.747081    55.462301    126.29458    1.0918377    238.25065   -35.455489    2000.1593    -23849.27    12485.525    11257.378    17.697077    11.372222    9.9384286 
    7100          7.1    207.60472    120.84741    328.45214            0            0    24.998053    56.278198    126.32847    1.0923213    238.48119   -35.407937     1999.274   -24160.663     12651.32    11403.119    17.694466    11.370544     9.936962 
    7200          7.2    208.65234    121.01719    329.66953            0            0    25.214926    57.075673    126.36174    1.0928036    238.81623   -35.349673    1998.3915   -24478.066    12820.589    11551.429    17.691862    11.368871    9.9354998 
    7300          7.3    209.64695    121.23849    330.88544            0            0    25.398499    57.854089    126.39436    1.0932845    239.25295   -35.301112    1997.5125   -24801.242    12993.131    11702.208    17.689268    11.367203    9.9340429 
    7400          7.4    210.58919     121.5094    332.09859            0            0    25.550044    58.612833    126.42631    1.0937637    239.78757   -35.244031    1996.6374   -25129.852    13168.746    11855.374    17.686684    11.365543    9.9325919 
    7500          7.5    211.48017    121.82754    333.30771            0            0    25.671277    59.351315    126.45758    1.0942409    240.41538   -35.190786    1995.7666   -25463.527    13347.165    12010.789    17.684112    11.363891    9.9311477 
    7600          7.6    212.32145    122.19009    334.51154            0            0     25.76432    60.068973    126.48815     1.094716    241.13085    -35.13876    1994.9005    -25801.82    13528.099    12168.305    17.681554    11.362246    9.9297108 
    7700          7.7    213.11493     122.5939    335.70883            0            0    25.831656    60.765268    126.51801    1.0951888    241.92772   -35.083886    1994.0393   -26144.223     13711.22    12327.752    17.679009    11.360611    9.9282817 
    7800          7.8    213.86289    123.03546    336.89835            0            0    25.876071    61.439692    126.54713    1.0956591    242.79911   -35.033825    1993.1833   -26490.179    13896.155    12488.922    17.676479    11.358985     9.926861 
    7900          7.9    214.56787    123.51107    338.07893            0            0      25.9006    62.091763     126.5755    1.0961268    243.73767   -34.980929    1992.3329   -26839.053    14082.509    12651.602    17.673965     11.35737     9.925449 
    8000            8    215.23261     124.0168    339.24941            0            0    25.908457    62.721033    126.60312    1.0965917    244.73569   -34.929513    1991.4882   -27190.168    14269.839     12815.54    17.671467    11.355765    9.9240461 
    8100          8.1    215.86002    124.54868    340.40869            0            0    25.902967    63.327082    126.62997    1.0970537    245.78529   -34.877842    1990.6495   -27542.784    14457.679    12980.472    17.668986     11.35417    9.9226528 
    8200          8.2    216.45305    125.10266    341.55572            0            0    25.887494    63.909524    126.65604    1.0975127    246.87853   -34.823593     1989.817   -27896.105    14645.526    13146.109    17.666522    11.352587    9.9212692 
    8300          8.3     217.0147     125.6748     342.6895            0            0    25.865373    64.468007    126.68132    1.0979686     248.0076   -34.768968    1988.9908   -28249.291    14832.846    13312.138    17.664076    11.351016    9.9198959 
    8400          8.4    217.54784    126.26127    343.80911            0            0    25.839829     65.00221     126.7058    1.0984213    249.16493    -34.71012    1988.1711   -28601.447    15019.083    13478.234     17.66165    11.349456     9.918533 
    8500          8.5    218.05526    126.85844    344.91369            0            0    25.813917    65.511853    126.72949    1.0988706    250.34339   -34.647919    1987.3581   -28951.639    15203.648    13644.047    17.659242    11.347909    9.9171809 
    8600          8.6     218.5395    127.46297    346.00247            0            0    25.790448    65.996686    126.75236    1.0993165    251.53639   -34.580845    1986.5521    -29298.89    15385.934    13809.213    17.656854    11.346375      9.91584 
    8700          8.7    219.00287    128.07187    347.07474            0            0    25.771934      66.4565    126.77443    1.0997587      252.738   -34.507217    1985.7533   -29642.188    15565.313    13973.354    17.654487    11.344853    9.9145107 
    8800          8.8    219.44734    128.68253    348.12988            0            0    25.760526     66.89112     126.7957    1.1001972    253.94308   -34.427188    1984.9618   -29980.493    15741.136    14136.076    17.652141    11.343346    9.9131933 
    8900          8.9    219.87453    129.29279    349.16732            0            0    25.757976    67.300413    126.81615    1.1006319    255.14736   -34.338628     1984.178   -30312.737    15912.745    14296.975    17.649818    11.341853    9.9118883 
    9000            9    220.28566    129.90095     350.1866            0            0    25.765591    67.684279    126.83579    1.1010624    256.34751   -34.241387    1983.4021   -30637.831    16079.469    14455.638    17.647517    11.340374    9.9105961 
    9100          9.1    220.68149    130.50582     351.1873            0            0    25.784206     68.04266    126.85462    1.1014887    257.54116   -34.134495    1982.6344   -30954.675    16240.629    14611.643     17.64524    11.338911    9.9093174 
    9200          9.2    221.06236    131.10671    352.16906            0            0    25.814168    68.375534    126.87265    1.1019106    258.72696   -34.017089    1981.8754    -31262.16    16395.545    14764.563    17.642988    11.337464    9.9080526 
    9300          9.3    221.42813    131.70344    353.13157            0            0    25.855326     68.68292    126.88989    1.1023278    259.90455   -33.889184    1981.1253   -31559.173    16543.538    14913.968    17.640761    11.336033    9.9068025 
    9400          9.4    221.77824    132.29632    354.07456            0            0    25.907033    68.964872    126.90633    1.1027401    261.07455   -33.750078    1980.3845    -31844.61    16683.933    15059.427    17.638562     11.33462    9.9055676 
    9500          9.5    222.11164    132.88612    354.99776            0            0    25.968161    69.221485      126.922    1.1031473    262.23846   -33.600036    1979.6535   -32117.374    16816.063    15200.511    17.636392    11.333225    9.9043486 
    9600          9.6    222.42691    133.47404    355.90095            0            0    26.037128     69.45289    126.93689    1.1035492    263.39867    -33.43918    1978.9326   -32376.389    16939.277    15336.795    17.634251    11.331849    9.9031462 
    9700          9.7    222.72221    134.06164    356.78385            0            0    26.111928    69.659257    126.95102    1.1039454    264.55825   -33.267867    1978.2223   -32620.603    17052.939     15467.86    17.632141    11.330494    9.9019612 
    9800          9.8    222.99538    134.65082     357.6462            0            0     26.19018    69.840793     126.9644    1.1043358    265.72094   -33.086974     1977.523   -32848.995    17156.437    15593.297    17.630063    11.329158    9.9007943 
    9900          9.9    223.24397     135.2437    358.48767            0            0    26.269178     69.99774    126.97705    1.1047201    266.89094   -32.897269    1976.8352   -33060.581    17249.183    15712.706    17.628019    11.327845    9.8996463 
   10000           10    223.46531    135.84259    359.30789            0            0    26.345953    70.130379    126.98897     1.105098    268.07278   -32.700055    1976.1592   -33254.422    17330.618    15825.704    17.626009    11.326553    9.8985177 
   10100         10.1    223.65656    136.44987    360.10643            0            0    26.417341    70.239025    127.00019    1.1054693     269.2712   -32.496719    1975.4954   -33429.629     17400.22     15931.92    17.624035    11.325285    9.8974093 
   10200         10.2    223.81481    137.06795    360.88275            0            0    26.480056    70.324027    127.01072    1.1058338    270.49091    -32.28886    1974.8442   -33585.371      17457.5    16031.004    17.622099     11.32404    9.8963217 
   10300         10.3    223.93712    137.69914    361.63625            0            0    26.530763    70.385771    127.02058    1.1061913    271.73651   -32.078377     1974.206   -33720.876    17502.015    16122.626      17.6202     11.32282    9.8952554 
   10400         10.4    224.02063    138.34559    362.36622            0            0    26.566159    70.424674    127.02979    1.1065417    273.01224   -31.867193    1973.5809   -33835.442    17533.362    16206.478     17.61834    11.321625     9.894211 
   10500         10.5     224.0626    139.00923    363.07184            0            0    26.583049    70.441186    127.03837    1.1068847    274.32186   -31.657488    1972.9692   -33928.438    17551.188    16282.277     17.61652    11.320455    9.8931887 
   10600         10.6    224.06055    139.69163    363.75218            0            0    26.578425    70.435792    127.04633    1.1072204    275.66851   -31.451483    1972.3711    -33999.31     17555.19    16349.766    17.614739    11.319311    9.8921889 
   10700         10.7    224.01225    140.39398    364.40623            0            0    26.549539    70.409005    127.05371    1.1075486    277.05453   -31.251465    1971.7866   -34047.585    17545.117    16408.714    17.612999    11.318193    9.8912117 
   10800         10.8    223.91586      141.117    365.03285            0            0    26.493973    70.361369    127.06051    1.1078693    278.48134   -31.059786    1971.2158   -34072.875    17520.773    16458.922    17.611299    11.317101    9.8902571 
   10900         10.9    223.76993     141.8609    365.63083            0            0    26.409702    70.293458    127.06677    1.1081826    279.94936   -30.878729    1970.6585   -34074.878    17482.021    16500.221     17.60964    11.316034    9.8893249 
   11000           11    223.57354    142.62534    366.19888            0            0    26.295153    70.205873    127.07252    1.1084886    281.45791   -30.710561    1970.1145   -34053.385     17428.78    16532.473    17.608019    11.314993    9.8884149 
   11100         11.1    223.32625    143.40937    366.73563            0            0    26.149248    70.099243    127.07776    1.1087873    283.00514   -30.557427    1969.5837   -34008.276    17361.031    16555.573    17.606438    11.313977    9.8875267 
   11200         11.2     223.0282    144.21147    367.23967            0            0    25.971446    69.974222    127.08253    1.1090791      284.588   -30.421325    1969.0656   -33939.526    17278.813     16569.45    17.604894    11.312984    9.8866597 
   11300         11.3    222.68011    145.02948     367.7096            0            0    25.761766     69.83149    127.08686    1.1093641    286.20227   -30.304089    1968.5598   -33847.205    17182.227    16574.066    17.603386    11.312016    9.8858131 
   11400         11.4    222.28332    145.86066    368.14398            0            0    25.520805    69.671748    127.09076    1.1096426    287.84253   -30.207308    1968.0657   -33731.474    17071.435    16569.417    17.601913    11.311069    9.8849859 
   11500         11.5    221.83974    146.70172    368.54145            0            0     25.24974     69.49572    127.09428     1.109915    289.50227   -30.132338    1967.5827    -33592.59    16946.659    16555.534    17.600473    11.310144    9.8841772 
   11600         11.6    221.35189    147.54881     368.9007            0            0    24.950318     69.30415    127.09742    1.1101817    291.17393   -30.080243      1967.11   -33430.902    16808.179    16532.482    17.599064    11.309238    9.8833856 
   11700         11.7    220.82286    148.39766    369.22052            0            0    24.624838    69.097801    127.10022    1.1104431    292.84906   -30.051783    1966.6469   -33246.847    16656.333    16500.358    17.597682     11.30835      9.88261 
   11800         11.8    220.25628    149.24357    369.49985            0            0    24.276115     68.87745    127.10271    1.1106997    294.51839   -30.047404    1966.1924   -33040.952    16491.516    16459.294    17.596327    11.307479    9.8818487 
   11900         11.9    219.65624    150.08156     369.7378            0            0    23.907435    68.643893    127.10492    1.1109522    296.17207   -30.067215    1965.7457   -32813.827    16314.175     16409.45    17.594994    11.306623    9.8811002 
   12000           12     219.0273    150.90639    369.93369            0            0    23.522504    68.397934    127.10686    1.1112009    297.79981   -30.111003    1965.3057   -32566.163     16124.81     16351.02    17.593681    11.305779    9.8803628 
   12100         12.1    218.37434    151.71273    370.08708            0            0    23.125378    68.140393    127.10857    1.1114466    299.39105   -30.178223    1964.8713   -32298.729    15923.967    16284.227    17.592385    11.304946    9.8796349 
   12200         12.2    217.70257    152.49523     370.1978            0            0    22.720397    67.872095    127.11008    1.1116897    300.93522   -30.268024    1964.4415   -32012.363     15712.24     16209.32    17.591102    11.304122    9.8789145 
   12300         12.3    217.01739    153.24859    370.26598            0            0    22.312102    67.593874    127.11141     1.111931    302.42192   -30.379262    1964.0153   -31707.972    15490.261    16126.573     17.58983    11.303304    9.8781999 
   12400         12.4    216.32431    153.96775    370.29206            0            0    21.905152    67.306569    127.11259     1.112171    303.84111   -30.510531    1963.5914   -31386.523    15258.703    16036.289    17.588564    11.302491    9.8774892 
   12500         12.5     215.6289    154.64791    370.27681            0            0    21.504235     67.01102    127.11365    1.1124105    305.18336   -30.660191    1963.1688   -31049.038     15018.27    15938.787    17.587302     11.30168    9.8767805 
   12600         12.6    214.93666    155.28469    370.22135            0            0    21.113986    66.708069     127.1146    1.1126498    306.43997   -30.826411    1962.7464   -30696.588    14769.699     15834.41    17.586041    11.300869    9.8760722 
   12700         12.7    214.25294    155.87415    370.12709            0            0    20.738891    66.398559    127.11549    1.1128898    307.60322   -31.007202    1962.3232   -30330.288    14513.749    15723.517    17.584777    11.300057    9.8753623 
   12800         12.8    213.58287    156.41293     369.9958            0            0    20.383209    66.083326    127.11633    1.1131309    308.66646   -31.200467    1961.8982    -29951.29    14251.204    15606.484    17.583507    11.299241    9.8746493 
   12900         12.9    212.93124    156.89829    369.82954            0            0    20.050886    65.763206    127.11715    1.1133737    309.62427   -31.404037    1961.4704   -29560.774    13982.862    15483.699    17.582229     11.29842    9.8739314 
   13000           13    212.30248    157.32815    369.63064            0            0    19.745483    65.439024    127.11798    1.1136187    310.47256   -31.615718    1961.0389   -29159.946    13709.537    15355.562     17.58094    11.297591    9.8732074 
   13100         13.1    211.70054    157.70114    369.40168            0            0    19.470108    65.111602    127.11883    1.1138663    311.20861   -31.833333    1960.6029    -28750.03    13432.049    15222.481    17.579637    11.296754    9.8724756 
   13200         13.2    211.12885    158.01661    369.14546            0            0    19.227357     64.78175    127.11974     1.114117    311.83117    -32.05476    1960.1616   -28332.261    13151.225    15084.871    17.578318    11.295907    9.8717349 
   13300         13.3    210.59026    158.27467    368.86492            0            0    19.019264    64.450268    127.12072    1.1143713    312.34042    -32.27797    1959.7145   -27907.879    12867.892    14943.153    17.576981    11.295047    9.8709842 
   13400         13.4    210.08702    158.47612    368.56314            0            0    18.847268    64.117946    127.12181    1.1146293    312.73796   -32.501056    1959.2608   -27478.127    12582.875     14797.75    17.575624    11.294176    9.8702224 
   13500         13.5    209.62076    158.62249    368.24325            0            0    18.712183     63.78556    127.12301    1.1148914    313.02682   -32.722269    1958.8001   -27044.241    12296.991    14649.083    17.574247    11.293291    9.8694488 
   13600         13.6    209.19242    158.71598     367.9084            0            0    18.614187    63.453873    127.12436    1.1151579    313.21131   -32.940038     1958.332   -26607.445    12011.049    14497.576    17.572847    11.292391    9.8686625 
   13700         13.7    208.80233    158.75941    367.56174            0            0    18.552818    63.123638    127.12588     1.115429    313.29701   -33.152992    1957.8561   -26168.951    11725.845    14343.647    17.571423    11.291476    9.8678631 
   13800         13.8    208.45016    158.75615    367.20631            0            0    18.526989    62.795588    127.12758    1.1157047    313.29059   -33.359975    1957.3722   -25729.948    11442.157    14187.711    17.569975    11.290546    9.8670501 
   13900         13.9    208.13494    158.71011    366.84505            0            0    18.535009    62.470446    127.12949    1.1159853    313.19972   -33.560064    1956.8802   -25291.604    11160.747    14030.177    17.568503      11.2896    9.8662232 
   14000           14    207.85516    158.62559    366.48075            0            0    18.574618    62.148919    127.13162    1.1162707    313.03293   -33.752568    1956.3798   -24855.055    10882.353    13871.445    17.567006    11.288637    9.8653822 
   14100         14.1    207.60873    158.50725    366.11598            0            0    18.643031    61.831698      127.134     1.116561    312.79941   -33.937037    1955.8712   -24421.408     10607.69    13711.907    17.565483    11.287659    9.8645271 
   14200         14.2     207.3931    158.36003    365.75313            0            0    18.736996    61.519461    127.13664    1.1168562    312.50888   -34.113261    1955.3542   -23991.733    10337.449    13551.944    17.563935    11.286664     9.863658 
   14300         14.3    207.20528    158.18902    365.39431            0            0    18.852856    61.212867    127.13956    1.1171562    312.17141   -34.281263    1954.8291   -23567.061    10072.288    13391.929    17.562363    11.285654    9.8627749 
   14400         14.4    207.04197    157.99942    365.04138            0            0    18.986622    60.912565    127.14278     1.117461    311.79723   -34.441291    1954.2959   -23148.381    9812.8397    13232.218    17.560766    11.284628    9.8618781 
   14500         14.5    206.89955    157.79639    364.69594            0            0    19.134052    60.619184    127.14632    1.1177705    311.39657   -34.593806    1953.7548    -22736.64    9559.7016    13073.157    17.559145    11.283586    9.8609678 
   14600         14.6    206.77425    157.58502    364.35928            0            0    19.290729     60.33334    127.15019    1.1180846    310.97946   -34.739464     1953.206   -22332.734     9313.439    12915.077    17.557501     11.28253    9.8600445 
   14700         14.7    206.66219    157.37022    364.03241            0            0    19.452152    60.055633     127.1544    1.1184031    310.55558   -34.879099    1952.6497   -21937.512    9074.5816    12758.293    17.555834    11.281458    9.8591084 
   14800         14.8    206.55945    157.15663    363.71608            0            0    19.613823    59.786649    127.15898    1.1187259    310.13407   -35.013697    1952.0862   -21551.772    8843.6229    12603.108    17.554145    11.280373    9.8581599 
   14900         14.9    206.46222    156.94852    363.41074            0            0    19.771333    59.526955    127.16393     1.119053    309.72338   -35.144372    1951.5157   -21176.256    8621.0185    12449.804    17.552435    11.279274    9.8571994 
   15000           15    206.36683    156.74976     363.1166            0            0    19.920448    59.277107    127.16928    1.1193841    309.33116    -35.27234    1950.9384   -20811.652    8407.1849     12298.65    17.550704    11.278162    9.8562273 
   15100         15.1    206.26986    156.56375    362.83361            0            0    20.057195     59.03764    127.17503    1.1197192    308.96407   -35.398884    1950.3545    -20458.59    8202.4987    12149.895    17.548953    11.277036     9.855244 
   15200         15.2    206.16821     156.3933    362.56151            0            0    20.177938    58.809076    127.18119    1.1200582    308.62772   -35.525328    1949.7643   -20117.643    8007.2954    12003.771    17.547182    11.275899    9.8542497 
   15300         15.3    206.05916    156.24067    362.29983            0            0    20.279452    58.591919    127.18779    1.1204009    308.32652   -35.652999    1949.1678   -19789.321    7821.8684    11860.493    17.545393    11.274749    9.8532447 
   15400         15.4    205.94047    156.10747    362.04794            0            0    20.358987    58.386656    127.19483    1.1207474    308.06366   -35.783199    1948.5653   -19474.073    7646.4685    11720.255    17.543585    11.273587    9.8522293 
   15500         15.5     205.8104    155.99466    361.80506            0            0    20.414328    58.193757    127.20231    1.1210975    307.84103   -35.917167    1947.9568   -19172.285    7481.3026    11583.231    17.541758    11.272413    9.8512037 
   15600         15.6    205.66778    155.90251    361.57028            0            0    20.443837    58.013673    127.21027    1.1214512    307.65917   -36.056051    1947.3424    -18884.28    7326.5333    11449.579    17.539914    11.271228    9.8501678 
   15700         15.7    205.51202    155.83062    361.34264            0            0    20.446494    57.846835    127.21869    1.1218085    307.51732   -36.200877    1946.7221   -18610.313    7182.2784    11319.432    17.538051    11.270031    9.8491218 
   15800         15.8    205.34316    155.77795    361.12112            0            0    20.421916    57.693658    127.22759    1.1221695    307.41338   -36.352517    1946.0958   -18350.572    7048.6102    11192.905     17.53617    11.268822    9.8480656 
   15900         15.9    205.16189    155.74278    360.90468            0            0    20.370379    57.554533    127.23698    1.1225342    307.34398   -36.511667    1945.4636   -18105.182     6925.555    11070.091    17.534271    11.267602     9.846999 
   16000           16    204.96951    155.72281    360.69232            0            0    20.292809    57.429831    127.24687    1.1229026    307.30455   -36.678822    1944.8253   -17874.194    6813.0929    10951.064    17.532353     11.26637    9.8459219 
   16100         16.1    204.76794    155.71514    360.48308            0            0    20.190777    57.319903    127.25726    1.1232749    307.28942    -36.85426    1944.1807   -17657.593    6711.1575    10835.873    17.530416    11.265125     9.844834 
   16200         16.2    204.55971    155.71639    360.27611            0            0    20.066473    57.225077    127.26816    1.1236512     307.2919   -37.038027    1943.5296   -17455.297    6619.6362    10724.547    17.528459    11.263867     9.843735 
   16300         16.3    204.34791    155.72275    360.07066            0            0    19.922668    57.145657    127.27958    1.1240316    307.30445   -37.229924    1942.8719   -17267.151    6538.3695    10617.091    17.526481    11.262596    9.8426245 
   16400         16.4    204.13611    155.73002    359.86614            0            0    19.762672    57.081925    127.29152    1.1244162     307.3188   -37.429511    1942.2073   -17092.932    6467.1523    10513.491    17.524483    11.261312     9.841502 
   16500         16.5    203.92839    155.73375    359.66214            0            0    19.590274    57.034138    127.30397    1.1248053    307.32616   -37.636102    1941.5355    -16932.35    6405.7335    10413.708    17.522462    11.260013    9.8403672 
   16600         16.6    203.72916    155.72928    359.45844            0            0    19.409673    57.002528    127.31696     1.125199    307.31734   -37.848775    1940.8563   -16785.044    6353.8168    10317.681    17.520418      11.2587    9.8392195 
   16700         16.7    203.54319    155.71187    359.25506            0            0     19.22541    56.987304    127.33047    1.1255974    307.28298   -38.066381    1940.1693   -16650.588    6311.0619    10225.327    17.518351    11.257372    9.8380585 
   16800         16.8    203.37545    155.67678    359.05222            0            0     19.04228    56.988648    127.34452    1.1260007    307.21372   -38.287568    1939.4743    -16528.49    6277.0851    10136.542    17.516259    11.256027    9.8368837 
   16900         16.9    203.23106    155.61935    358.85041            0            0    18.865247    57.006719    127.35909    1.1264091     307.1004   -38.510794    1938.7711   -16418.193     6251.461      10051.2    17.514142    11.254667    9.8356946 
   17000           17    203.11521    155.53514    358.65035            0            0    18.699358    57.041649     127.3742    1.1268228    306.93422   -38.734359    1938.0593   -16319.078    6233.7235    9969.1512    17.511998    11.253289    9.8344908 
   17100         17.1    203.03304    155.41998    358.45301            0            0    18.549647    57.093547    127.38984    1.1272419    306.70695   -38.956435    1937.3389   -16230.467    6223.3681    9890.2293    17.509828    11.251895    9.8332721 
   17200         17.2    202.98956    155.27005    358.25961            0            0    18.421046    57.162496    127.40601    1.1276664    306.41109   -39.175094    1936.6095   -16151.625    6219.8535     9814.246     17.50763    11.250483    9.8320379 
   17300         17.3    202.98956    155.08201    358.07157            0            0    18.318294    57.248555    127.42271    1.1280965       306.04   -39.388346    1935.8712   -16081.763    6222.6037    9740.9945    17.505405    11.249053    9.8307882 
   17400         17.4    203.03755    154.85299    357.89054            0            0     18.24585     57.35176    127.43994    1.1285322    305.58805   -39.594172    1935.1237   -16020.044    6231.0109    9670.2502    17.503152    11.247605    9.8295228 
   17500         17.5    203.13763    154.58071    357.71834            0            0    18.207814    57.472123    127.45769    1.1289736    305.05074   -39.790562    1934.3671   -15965.581    6244.4378    9601.7718     17.50087    11.246139    9.8282416 
   17600         17.6    203.29345    154.26351    357.55697            0            0    18.207852    57.609636    127.47597    1.1294207    304.42477    -39.97555    1933.6015    -15917.45    6262.2205    9535.3028    17.498561    11.244655    9.8269447 
   17700         17.7    203.50815    153.90037    357.40852            0            0    18.249128    57.764266    127.49476    1.1298733    303.70815   -40.147248    1932.8268   -15874.686    6283.6714    9470.5727    17.496224    11.243153    9.8256323 
   17800         17.8    203.78428    153.49094    357.27522            0            0    18.334248    57.935963    127.51407    1.1303315    302.90017   -40.303877    1932.0434   -15836.293    6308.0828    9407.2987     17.49386    11.241634    9.8243046 
   17900         17.9    204.12376    153.03556    357.15931            0            0    18.465215    58.124657    127.53388     1.130795    302.00151   -40.443803    1931.2515   -15801.249    6334.7296    9345.1875    17.491469    11.240097     9.822962 
   18000           18    204.52785    152.53523    357.06308            0            0    18.643387    58.330256    127.55421    1.1312637    301.01417   -40.565558    1930.4512   -15768.507    6362.8735    9283.9369    17.489053    11.238545    9.8216051 
   18100         18.1    204.99715    151.99164    356.98879            0            0     18.86946    58.552655    127.57503    1.1317375    299.94144   -40.667869    1929.6432   -15737.007    6391.7657    9223.2379    17.486612    11.236976    9.8202345 
   18200         18.2    205.53153     151.4071    356.93863            0            0    19.143448     58.79173    127.59635     1.132216    298.78791   -40.749678    1928.8277   -15705.677    6420.6514    9162.7766    17.484149    11.235393    9.8188509 
   18300         18.3    206.13019    150.78453    356.91472            0            0    19.464689    59.047343    127.61816    1.1326989    297.55933   -40.810158    1928.0053   -15673.439    6448.7729    9102.2359    17.481663    11.233796    9.8174552 
   18400         18.4    206.79165     150.1274    356.91904            0            0    19.831853    59.319338    127.64046     1.133186    296.26253    -40.84873    1927.1765   -15639.218    6475.3735    9041.2982    17.479158    11.232186    9.8160484 
   18500         18.5    207.51375    149.43966    356.95341            0            0    20.242964    59.607549    127.66323    1.1336769    294.90536   -40.865068    1926.3421   -15601.944    6499.7014    8979.6472    17.476635    11.230565    9.8146314 
   18600         18.6    208.29372    148.72574    357.01945            0            0    20.695438    59.911797    127.68648    1.1341711    293.49649   -40.859107    1925.5026    -15560.56    6521.0131    8916.9699    17.474096    11.228933    9.8132055 
   18700         18.7    209.12821    147.99038    357.11859            0            0    21.186123    60.231887     127.7102    1.1346684    292.04534   -40.831044    1924.6587    -15514.03    6538.5778    8852.9589    17.471543    11.227293    9.8117717 
   18800         18.8    210.01335    147.23866    357.25201            0            0     21.71136    60.567616    127.73438    1.1351682    290.56187   -40.781336    1923.8113   -15461.339      6551.68    8787.3149    17.468978    11.225645    9.8103315 
   18900         18.9    210.94482    146.47582    357.42064            0            0    22.267036    60.918769    127.75901    1.1356702    289.05649   -40.710694     1922.961   -15401.505    6559.6243    8719.7481    17.466404     11.22399     9.808886 
   19000           19    211.91788    145.70728    357.62516            0            0    22.848666    61.285121    127.78409    1.1361738    287.53984   -40.620073    1922.1087   -15333.579    6561.7382     8649.981    17.463823    11.222332    9.8074365 
   19100         19.1    212.92751    144.93846    357.86597            0            0    23.451461    61.666434    127.80962    1.1366785    286.02264   -40.510658    1921.2551   -15256.658    6557.3758    8577.7499    17.461238     11.22067    9.8059845 
   19200         19.2    213.96846    144.17476    358.14322            0            0    24.070415    62.062463    127.83558     1.137184    284.51555   -40.383849    1920.4011    -15169.88     6545.921    8502.8073     17.45865    11.219008    9.8045313 
   19300         19.3    215.03531    143.42146    358.45677            0            0    24.700388    62.472951    127.86197    1.1376898      283.029   -40.241242    1919.5473   -15072.438    6526.7911    8424.9236    17.456063    11.217345    9.8030782 
   19400         19.4    216.12261    142.68365    358.80625            0            0    25.336195    62.897632    127.88878    1.1381954    281.57298   -40.084604    1918.6947   -14963.582    6499.4395    8343.8889    17.453477    11.215684    9.8016265 
   19500         19.5    217.22493     141.9661    359.19103            0            0    25.972696    63.336228      127.916    1.1387004    280.15698   -39.915855    1917.8438   -14842.622     6463.359    8259.5149    17.450897    11.214025    9.8001773 
   19600         19.6    218.33697    141.27328    359.61026            0            0    26.604881    63.788452    127.94364    1.1392043    278.78976   -39.737034    1916.9954   -14708.932    6418.0844    8171.6361    17.448323    11.212372     9.798732 
   19700         19.7    219.45364    140.60922    360.06285            0            0    27.227958    64.254007    127.97167    1.1397069    277.47928   -39.550277    1916.1501   -14561.958     6363.195    8080.1118    17.445759    11.210723    9.7972916 
   19800         19.8    220.57011    139.97745    360.54756            0            0    27.837436    64.732581    128.00009    1.1402076    276.23255   -39.357783    1915.3086   -14401.217    6298.3173    7984.8268    17.443204    11.209082    9.7958571 
   19900         19.9    221.68195    139.38101    361.06297            0            0      28.4292    65.223855     128.0289    1.1407063    275.05553   -39.161787    1914.4713   -14226.306    6223.1273    7885.6931    17.440662    11.207448    9.7944295 
   20000           20    222.78516    138.82234    361.60749            0            0    28.999582    65.727495    128.05808    1.1412025    273.95304   -38.964523    1913.6388   -14036.896     6137.352    7782.6507    17.438134    11.205824    9.7930096 
   20100         20.1    223.87621    138.30326    362.17947            0            0    29.545428    66.243155    128.08763    1.1416962     272.9287   -38.768197    1912.8114   -13832.744    6040.7717    7675.6682     17.43562    11.204208     9.791598 
   20200         20.2    224.95215    137.82498    362.77713            0            0    30.064148    66.770478    128.11753     1.142187    271.98485    -38.57495    1911.9895    -13613.69    5933.2212    7564.7437    17.433122    11.202603    9.7901954 
   20300         20.3    226.01063    137.38803    363.39865            0            0    30.553765     67.30909    128.14777    1.1426747    271.12256   -38.386829    1911.1733   -13379.657    5814.5913    7449.9049    17.430642    11.201009    9.7888021 
   20400         20.4    227.04991    136.99227    364.04218            0            0    31.012946    67.858607    128.17835    1.1431594    270.34157   -38.205753     1910.363   -13130.656    5684.8294    7331.2097    17.428178    11.199426    9.7874185 
   20500         20.5    228.06891    136.63692    364.70583            0            0    31.441026    68.418629    128.20926    1.1436409    269.64032   -38.033482    1909.5588   -12866.787    5543.9407    7208.7459    17.425732    11.197854    9.7860448 
   20600         20.6    229.06724    136.32055    365.38779            0            0     31.83802    68.988742    128.24048    1.1441191    269.01599   -37.871591    1908.7605   -12588.234    5391.9879    7082.6311    17.423303    11.196294    9.7846811 
   20700         20.7    230.04514     136.0411    366.08623            0            0    32.204623    69.568518      128.272    1.1445942    268.46452   -37.721442    1907.9683   -12295.268     5229.092    6953.0121    17.420892    11.194744    9.7833271 
   20800         20.8    231.00351    135.79593    366.79944            0            0    32.542192    70.157514     128.3038    1.1450662    267.98071   -37.584159    1907.1818   -11988.248    5055.4315    6820.0645    17.418498    11.193206    9.7819827 
   20900         20.9    231.94388    135.58188    367.52576            0            0    32.852724    70.755274    128.33589    1.1455352     267.5583    -37.46061    1906.4011   -11667.615    4871.2419    6683.9915    17.416121    11.191678    9.7806477 
   21000           21    232.86838    135.39528    368.26366            0            0    33.138818    71.361327    128.36823    1.1460013    267.19007   -37.351392    1905.6256   -11333.893    4676.8152    6545.0231     17.41376    11.190161    9.7793214 
   21100         21.1    233.77964    135.23208    369.01172            0            0    33.403626    71.975189    128.40082    1.1464648    266.86801   -37.256819    1904.8553   -10987.683    4472.4981    6403.4148    17.411413    11.188653    9.7780035 
   21200         21.2     234.6808    135.08787    369.76867            0            0    33.650792    72.596362    128.43365    1.1469258    266.58342   -37.176913    1904.0896   -10629.667    4258.6906    6259.4458     17.40908    11.187153    9.7766932 
   21300         21.3    235.57541    134.95798     370.5334            0            0    33.884386    73.224336    128.46669    1.1473846     266.3271   -37.111409    1903.3282   -10260.597    4035.8447    6113.4177    17.406759    11.185662    9.7753899 
   21400         21.4    236.46735    134.83759    371.30494            0            0    34.108825    73.858589    128.49994    1.1478414    266.08951   -37.059756    1902.5707   -9881.2933    3804.4613    5965.6527    17.404449    11.184178    9.7740928 
   21500         21.5    237.36075    134.72178    372.08254            0            0    34.328791    74.498587    128.53337    1.1482966    265.86098   -37.021128    1901.8165   -9492.6433    3565.0887    5816.4912    17.402149      11.1827    9.7728011 
   21600         21.6    238.25991    134.60566    372.86557            0            0    34.549139    75.143788    128.56698    1.1487505    265.63183   -36.994444    1901.0651    -9095.593    3318.3192    5666.2905    17.399857    11.181227     9.771514 
   21700         21.7    239.16919    134.48446    373.65364            0            0    34.774806    75.793638    128.60074    1.1492032    265.39263   -36.978385    1900.3162   -8691.1436    3064.7866    5515.4218    17.397572    11.179758    9.7702306 
   21800         21.8    240.09294    134.35358    374.44652            0            0    35.010719    76.447576    128.63465    1.1496552    265.13436   -36.971421    1899.5691   -8280.3462    2805.1631    5364.2689    17.395292    11.178293    9.7689502 
   21900         21.9     241.0354    134.20874    375.24414            0            0    35.261695    77.105036    128.66867    1.1501066    264.84854   -36.971844    1898.8235   -7864.2964    2540.1559     5213.225    17.393015     11.17683    9.7676718 
   22000           22    242.00059    134.04605    376.04664            0            0    35.532352    77.765443     128.7028    1.1505578    264.52749   -36.977803    1898.0789   -7444.1284    2270.5036    5062.6913    17.390742    11.175369    9.7663949 
   22100         22.1    242.99225    133.86206    376.85431            0            0    35.827019     78.42822    128.73701     1.151009     264.1644   -36.987338    1897.3349   -7021.0095    1996.9733    4913.0741    17.388469    11.173909    9.7651186 
   22200         22.2    244.01373    133.65385    377.66758            0            0    36.149649    79.092784     128.7713    1.1514604    263.75351   -36.998419    1896.5911   -6596.1345    1720.3562     4764.783    17.386196    11.172449    9.7638424 
   22300         22.3    245.06793    133.41909    378.48702            0            0    36.503747    79.758554    128.80563    1.1519122    263.29023    -37.00899    1895.8472   -6170.7201    1441.4646    4618.2285    17.383923    11.170988    9.7625657 
   22400         22.4    246.15725    133.15608    379.31333            0            0    36.892297    80.424943    128.84001    1.1523645    262.77121   -37.017005     1895.103   -5745.9988    1161.1278      4473.82    17.381648    11.169526    9.7612881 
   22500         22.5    247.28347     132.8638    380.14727            0            0    37.317703    81.091369     128.8744    1.1528176    262.19443   -37.020471    1894.3582    -5323.214    880.18881    4331.9638    17.379371    11.168062    9.7600092 
   22600         22.6    248.44778    132.54193    380.98971            0            0    37.781741    81.757248    128.90879    1.1532714    261.55924   -37.017482    1893.6128   -4903.6141    599.50054    4193.0611    17.377091    11.166597    9.7587289 
   22700         22.7    249.65069    132.19085    381.84153            0            0    38.285522       82.422    128.94316     1.153726    260.86641   -37.006259    1892.8667   -4488.4476    319.92229    4057.5066    17.374808    11.165131     9.757447 
   22800         22.8    250.89202    131.81163    382.70365            0            0    38.829465    83.085049    128.97751    1.1541813    260.11806   -36.985179    1892.1199   -4078.9581    42.316299    3925.6863    17.372523    11.163662    9.7561636 
   22900         22.9    252.17091    131.40605    383.57696            0            0    39.413288    83.745821     129.0118    1.1546374    259.31769   -36.952806    1891.3725   -3676.3792    -232.4556    3797.9764    17.370235    11.162192    9.7548788 
   23000           23    253.48578    130.97656    384.46234            0            0    40.036006    84.403749    129.04602    1.1550942    258.47012   -36.907916    1890.6246   -3281.9305   -503.53527     3674.742    17.367946     11.16072    9.7535929 
   23100         23.1    254.83438     130.5262    385.36058            0            0    40.695942    85.058272    129.08016    1.1555514    257.58139   -36.849521    1889.8765   -2896.8125    -770.0714    3556.3354    17.365654    11.159248    9.7523063 
   23200         23.2     256.2138    130.05862    386.27242            0            0    41.390759    85.708834     129.1142     1.156009    256.65865   -36.776881    1889.1285   -2522.2034   -1031.2226    3443.0953    17.363363    11.157776    9.7510194 
   23300         23.3    257.62051    129.57796    387.19847            0            0    42.117491    86.354888    129.14813    1.1564667    255.71011   -36.689519    1888.3808   -2159.2544   -1286.1601    3335.3459    17.361072    11.156304    9.7497329 
   23400         23.4    259.05041    129.08882    388.13922            0            0    42.872595    86.995891    129.18192    1.1569242    254.74484   -36.587231     1887.634   -1809.0865   -1534.0709    3233.3958    17.358783    11.154833    9.7484475 
   23500         23.5    260.49889    128.59617    389.09505            0            0    43.652009    87.631312    129.21557    1.1573813    253.77264   -36.470086    1886.8884   -1472.7871   -1774.1602     3137.537    17.356497    11.153364    9.7471638 
   23600         23.6     261.9609    128.10527    390.06617            0            0     44.45122    88.260626    129.24905    1.1578378    252.80391   -36.338429    1886.1446   -1151.4064   -2005.6539     3048.045    17.354216    11.151898    9.7458828 
   23700         23.7    263.43102    127.62161    391.05263            0            0    45.265344    88.883316    129.28236    1.1582932    251.84944   -36.192873     1885.403   -845.95436   -2227.8014    2965.1772    17.351942    11.150436    9.7446054 
   23800         23.8    264.90355    127.15077    392.05432            0            0    46.089204    89.498875    129.31547    1.1587472    250.92029    -36.03429    1884.6643   -557.39798    -2439.878    2889.1731    17.349675     11.14898    9.7433325 
   23900         23.9     266.3726    126.69839    393.07099            0            0    46.917422    90.106804    129.34838    1.1591995    250.02755   -35.863801    1883.9289    -286.6582   -2641.1868    2820.2536    17.347418    11.147529     9.742065 
   24000           24    267.83218    126.27003    394.10222            0            0    47.744507    90.706614    129.38106    1.1596498    249.18223   -35.682758    1883.1974   -34.607219   -2831.0613    2758.6203    17.345173    11.146087     9.740804 
   24100         24.1    269.27629    125.87113    395.14742            0            0    48.564956    91.297825    129.41351    1.1600976    248.39503   -35.492723    1882.4704    197.93414   -3008.8679    2704.4556     17.34294    11.144652    9.7395504 
   24200         24.2    270.69902    125.50686    396.20587            0            0    49.373341    91.879967    129.44571    1.1605427    247.67617   -35.295445    1881.7484    410.19903   -3174.0074    2657.9221    17.340723    11.143227    9.7383051 
   24300         24.3    272.09463    125.18209    397.27672            0            0    50.164407    92.452578    129.47765    1.1609847    247.03528   -35.092833     1881.032    601.47713   -3325.9178    2619.1622    17.338522    11.141813    9.7370691 
   24400         24.4    273.45768     124.9013    398.35898            0            0    50.933162    93.015209    129.50931    1.1614234    246.48117   -34.886927    1880.3216    771.11709   -3464.0758    2588.2979    17.336339     11.14041    9.7358432 
   24500         24.5    274.78306    124.66849    399.45155            0            0    51.674959    93.567421    129.54068    1.1618583    246.02173   -34.679863    1879.6177    918.52895   -3587.9993    2565.4308    17.334176     11.13902    9.7346282 
   24600         24.6    276.06611     124.4871    400.55321            0            0    52.385581    94.108785    129.57175    1.1622893    245.66378   -34.473844    1878.9207    1043.1865   -3697.2493    2550.6412    17.332033    11.137643    9.7334248 
   24700         24.7    277.30269       124.36    401.66269            0            0    53.061308    94.638883     129.6025    1.1627162    245.41295   -34.271095    1878.2309    1144.6296   -3791.4315    2543.9886    17.329911     11.13628    9.7322335 
   24800         24.8    278.48922    124.28937     402.7786            0            0    53.698984    95.157313    129.63293    1.1631386    245.27358   -34.073832    1877.5487    1222.4666   -3870.1987    2545.5107    17.327813    11.134931     9.731055 
   24900         24.9    279.62276    124.27674     403.8995            0            0    54.296063    95.663682    129.66301    1.1635566    245.24866    -33.88422    1876.8742     1276.376   -3933.2525    2555.2239    17.325738    11.133598    9.7298897 
   25000           25    280.70102    124.32289    405.02391            0            0     54.85066    96.157612    129.69274      1.16397    245.33973    -33.70433    1876.2077    1306.1091   -3980.3448    2573.1227    17.323686    11.132279    9.7287377 
   25100         25.1    281.72242    124.42786    406.15028            0            0    55.361569    96.638739    129.72211    1.1643787    245.54687   -33.536107    1875.5491    1311.4918   -4011.2796    2599.1795    17.321659    11.130977    9.7275992 
   25200         25.2    282.68611    124.59095    407.27706            0            0    55.828285    97.106716    129.75111    1.1647828    245.86872   -33.381326    1874.8985    1292.4262   -4025.9146    2633.3445    17.319656    11.129689    9.7264743 
   25300         25.3    283.59193    124.81073    408.40266            0            0    56.251005     97.56121    129.77972    1.1651822    246.30242   -33.241563    1874.2558    1248.8924   -4024.1627    2675.5456    17.317677    11.128418    9.7253629 
   25400         25.4    284.44045    125.08503    409.52548            0            0    56.630616    98.001906    129.80793     1.165577    246.84373   -33.118154     1873.621      1180.95   -4005.9927    2725.6883    17.315722    11.127161    9.7242647 
   25500         25.5    285.23291    125.41102    410.64393            0            0     56.96867    98.428507    129.83573    1.1659673    247.48705   -33.012175    1872.9937    1088.7393   -3971.4312    2783.6554    17.313789    11.125919    9.7231794 
   25600         25.6    285.97121    125.78524    411.75644            0            0    57.267347    98.840735    129.86312    1.1663534    248.22554   -32.924415    1872.3738     972.4822   -3920.5627    2849.3073    17.311879    11.124692    9.7221065 
   25700         25.7    286.65782    126.20365    412.86147            0            0    57.529402    99.238333    129.89009    1.1667353    249.05123   -32.855357    1871.7608    832.48294   -3853.5307    2922.4817    17.309989    11.123477    9.7210455 
   25800         25.8    287.29578    126.66172     413.9575            0            0    57.758104    99.621063    129.91661    1.1671134    249.95519   -32.805169    1871.1545    669.12833   -3770.5377    3002.9938     17.30812    11.122276    9.7199956 
   25900         25.9    287.88857    127.15452    415.04309            0            0    57.957165    99.988712     129.9427    1.1674879    250.92768   -32.773699    1870.5543    482.88775   -3671.8455    3090.6367    17.306269    11.121087    9.7189563 
   26000           26    288.44007    127.67678    416.11685            0            0    58.130654    100.34109    129.96833    1.1678591    251.95832   -32.760475    1869.9597    274.31266   -3557.7753    3185.1812    17.304435    11.119909    9.7179265 
   26100         26.1    288.95443    128.22305    417.17749            0            0    58.282912    100.67802     129.9935    1.1682272    253.03634    -32.76472    1869.3704    44.035695   -3428.7063    3286.3764    17.302617     11.11874    9.7169055 
   26200         26.2    289.43603    128.78776     418.2238            0            0    58.418454    100.99937    130.01821    1.1685927    254.15074   -32.785367    1868.7858   -207.23076   -3285.0756    3393.9503    17.300813    11.117581    9.7158924 
   26300         26.3    289.88933    129.36535    419.25468            0            0    58.541873    101.30501    130.04245    1.1689559    255.29055   -32.821083    1868.2052   -478.69644   -3127.3767    3507.6099    17.299022     11.11643    9.7148862 
   26400         26.4    290.31881    129.95038    420.26918            0            0    58.657735    101.59486    130.06621     1.169317    256.44505   -32.870303    1867.6283   -769.49565   -2956.1578    3627.0426    17.297241    11.115285    9.7138861 
   26500         26.5    290.72883    130.53763    421.26646            0            0    58.770487    101.86885    130.08949    1.1696764    257.60394   -32.931266    1867.0545   -1078.6902   -2772.0198    3751.9163    17.295469    11.114147    9.7128911 
   26600         26.6    291.12359    131.12223    422.24582            0            0    58.884351    102.12695    130.11229    1.1700343     258.7576   -33.002061    1866.4832   -1405.2731   -2575.6141     3881.881    17.293705    11.113013    9.7119004 
   26700         26.7    291.50697    131.69974    423.20671            0            0    59.003239    102.36913     130.1346    1.1703912    259.89726   -33.080668    1865.9141   -1748.1722   -2367.6394    4016.5696    17.291947    11.111883    9.7109132 
   26800         26.8    291.88251    132.26624    424.14875            0            0    59.130663    102.59543    130.15642    1.1707473    261.01518   -33.165015    1865.3466   -2106.2553   -2148.8393    4155.5996    17.290194    11.110757    9.7099286 
   26900         26.9    292.25328    132.81839    425.07167            0            0    59.269658    102.80588    130.17775    1.1711027    262.10481   -33.253025    1864.7804   -2478.3351   -1919.9979     4298.574    17.288444    11.109633    9.7089461 
   27000           27    292.62185    133.35353    425.97539            0            0    59.422714    103.00055    130.19859    1.1714578    263.16087   -33.342669    1864.2152   -2863.1747   -1681.9367    4445.0834    17.286697     11.10851    9.7079651 
   27100         27.1    292.99022    133.86971    426.85993            0            0    59.591725    103.17956    130.21893    1.1718127     264.1795   -33.432018    1863.6507   -3259.4937   -1435.5101    4594.7078    17.284952    11.107389     9.706985 
   27200         27.2    293.35976     134.3657    427.72546            0            0     59.77794    103.34303    130.23879    1.1721675    265.15828    -33.51929    1863.0866    -3665.975   -1181.6009    4747.0181    17.283208    11.106268    9.7060056 
   27300         27.3     293.7312    134.84103    428.57223            0            0    59.981938     103.4911    130.25816    1.1725223     266.0963   -33.602898    1862.5228   -4081.2715   -921.11586    4901.5787    17.281465    11.105147    9.7050264 
   27400         27.4    294.10464    135.29597    429.40061            0            0    60.203612    103.62398    130.27704    1.1728772    266.99408   -33.681487    1861.9592   -4504.0132   -654.98054    5057.9493    17.279721    11.104027    9.7040474 
   27500         27.5    294.47948    135.73152      430.211            0            0    60.442166    103.74187    130.29545    1.1732322    267.85361    -33.75397    1861.3958   -4932.8147   -384.13438    5215.6872    17.277978    11.102907    9.7030685 
   27600         27.6    294.85451    136.14938    431.00388            0            0    60.696135      103.845    130.31337    1.1735874     268.6782   -33.819562    1860.8325   -5366.2832   -109.52543    5374.3499    17.276235    11.101787    9.7020896 
   27700         27.7    295.22787    136.55185    431.77972            0            0    60.963409    103.93363    130.33083    1.1739426    269.47244   -33.877793    1860.2694   -5803.0257    167.89495    5533.4974    17.274492    11.100667     9.701111 
   27800         27.8    295.59716    136.94181    432.53897            0            0    61.241278    104.00806    130.34782    1.1742978      270.242   -33.928533    1859.7067   -6241.6575    447.17739    5692.6945     17.27275    11.099548    9.7001327 
   27900         27.9    295.95944    137.32264    433.28207            0            0    61.526486     104.0686    130.36435    1.1746529    270.99353   -33.971992    1859.1444   -6680.8094    727.37988    5851.5136     17.27101    11.098429     9.699155 
   28000           28     296.3113    137.69808    434.00938            0            0      61.8153    104.11558    130.38043    1.1750079    271.73442   -34.008725    1858.5828    -7119.136     1007.573    6009.5368     17.26927    11.097311    9.6981783 
   28100         28.1      296.649    138.07216    434.72116            0            0    62.103584    104.14935    130.39606    1.1753625    272.47264   -34.039623    1858.0221    -7555.323    1286.8454    6166.3588    17.267533    11.096195    9.6972028 
   28200         28.2    296.96845    138.44912    435.41758            0            0     62.38689     104.1703    130.41127    1.1757167    273.21654   -34.065902    1857.4623   -7988.0949    1564.3082     6321.589    17.265799    11.095081     9.696229 
   28300         28.3    297.26541    138.83324    436.09865            0            0    62.660546    104.17882    130.42604    1.1760703    273.97456   -34.089077    1856.9038   -8416.2222    1839.1008    6474.8542    17.264069    11.093969    9.6952571 
   28400         28.4    297.53551    139.22876    436.76428            0            0     62.91976    104.17535    130.44041    1.1764232    274.75509   -34.110939    1856.3468   -8838.5282     2110.395    6625.8004    17.262342    11.092859    9.6942874 
   28500         28.5    297.77439    139.63977    437.41416            0            0    63.159716    104.16031    130.45437    1.1767754    275.56617    -34.13352    1855.7913   -9253.8958    2377.3997    6774.0956     17.26062    11.091753    9.6933204 
   28600         28.6    297.97778    140.07008    438.04786            0            0    63.375681    104.13416    130.46793    1.1771266    276.41535   -34.159057    1855.2375   -9661.2733     2639.365    6919.4311    17.258903    11.090649    9.6923561 
   28700         28.7    298.14161    140.52313    438.66474            0            0    63.563105    104.09739    130.48112     1.177477    277.30939   -34.189945    1854.6855   -10059.681    2895.5866    7061.5243    17.257191    11.089549    9.6913948 
   28800         28.8    298.26214    141.00188    439.26402            0            0    63.717719    104.05048    130.49394    1.1778263    278.25417    -34.22869    1854.1354   -10448.215     3145.409    7200.1199    17.255485    11.088453    9.6904364 
   28900         28.9    298.33598    141.50874    439.84472            0            0    63.835632    103.99395     130.5064    1.1781748    279.25441   -34.277862     1853.587   -10826.054    3388.2289    7334.9917    17.253783    11.087359     9.689481 
   29000           29    298.36024    142.04547    440.40571            0            0    63.913411    103.92831    130.51852    1.1785223     280.3136   -34.340038    1853.0404   -11192.463    3623.4985     7465.944    17.252087    11.086269    9.6885284 
   29100         29.1    298.33258    142.61314    440.94572            0            0    63.948167     103.8541    130.53031    1.1788691    281.43384   -34.417747    1852.4952   -11546.794    3850.7279     7592.813    17.250395    11.085182    9.6875783 
   29200         29.2    298.25128    143.21205    441.46333            0            0    63.937613    103.77188    130.54179    1.1792153    282.61574   -34.513418    1851.9514   -11888.495    4069.4873    7715.4675    17.248707    11.084097    9.6866301 
   29300         29.3    298.11529    143.84173    441.95702            0            0    63.880126     103.6822    130.55296    1.1795612    283.85835   -34.629323    1851.4084   -12217.107     4279.409    7833.8102    17.247021    11.083014    9.6856834 
   29400         29.4    297.92427    144.50091    442.42517            0            0    63.774787    103.58563    130.56385    1.1799069    285.15917   -34.767525     1850.866   -12532.269    4480.1887    7947.7778    17.245336    11.081931    9.6847373 
   29500         29.5    297.67863     145.1875    442.86613            0            0    63.621406    103.48276    130.57446    1.1802528    286.51411   -34.929828    1850.3235   -12833.718    4671.5867    8057.3418    17.243651    11.080848    9.6837911 
   29600         29.6    297.37953    145.89868    443.27821            0            0    63.420535    103.37417    130.58482    1.1805993    287.91755    -35.11773    1849.7804    -13121.29    4853.4282    8162.5083    17.241964    11.079764    9.6828435 
   29700         29.7    297.02886    146.63085    443.65971            0            0    63.173465    103.26046    130.59494    1.1809469    289.36243   -35.332389     1849.236   -13394.919    5025.6036    8263.3178    17.240272    11.078677    9.6818935 
   29800         29.8    296.62925    147.37977    444.00902            0            0    62.882209    103.14222    130.60482    1.1812959    290.84034   -35.574583    1848.6895   -13654.637    5188.0683    8359.8454    17.238574    11.077586    9.6809398 
   29900         29.9    296.18402    148.14057    444.32459            0            0    62.549464    103.02006     130.6145    1.1816471    292.34171    -35.84469    1848.1402   -13900.575     5340.842    8452.1994    17.236867    11.076489    9.6799809 
   30000           30    295.69713    148.90788    444.60501            0            0    62.178564    102.89459    130.62398    1.1820008    293.85593   -36.142669    1847.5872   -14132.956    5484.0072    8540.5211    17.235147    11.075384    9.6790152 
   30100         30.1     295.1731    149.67595    444.84904            0            0    61.773417    102.76641    130.63327    1.1823577    295.37164   -36.468056    1847.0294   -14352.096    5617.7084    8624.9831    17.233413    11.074269    9.6780411 
   30200         30.2    294.61696     150.4387    445.05566            0            0    61.338431    102.63613     130.6424    1.1827184    296.87687   -36.819965    1846.4661   -14558.398    5742.1495    8705.7885     17.23166    11.073143    9.6770571 
   30300         30.3    294.03415    151.18993    445.22409            0            0    60.878424    102.50435    130.65137    1.1830836    298.35935   -37.197102    1845.8961   -14752.353    5857.5921    8783.1692    17.229887    11.072003    9.6760612 
   30400         30.4    293.43042    151.92339    445.35382            0            0    60.398531    102.37168    130.66021     1.183454    299.80677   -37.597788    1845.3185    -14934.53    5964.3524    8857.3841     17.22809    11.070848    9.6750518 
[...]
   42900        142.9    539.26567    185.28429    724.54996            0            0    151.95422    239.53147    147.77998    1.4049337    365.64142   -48465.711    1554.4146   -145321.99   -44.652024   -30.486712    22.047402    9.0176858    7.8183363 
   43000          143    539.88823    185.19288    725.08111            0            0     152.2019    239.88155    147.80478    1.4044293    365.46102   -48413.034    1554.9728   -145164.31   -44.531523   -30.257656    22.062831    9.0157533    7.8173499 
   43100        143.1    540.50274    185.11228    725.61502            0            0    152.44225    240.23103    147.82946    1.4039229    365.30196    -48367.17    1555.5338   -145027.05   -44.420073   -30.042097     22.07826    9.0138275    7.8163747 
   43200        143.2    541.10953    185.04183    726.15136            0            0    152.67549    240.58002    147.85402    1.4034144    365.16293   -48328.219    1556.0974    -144910.5   -44.317875   -29.841208    22.093688     9.011908    7.8154105 
   43300        143.3    541.70913    184.98071    726.68984            0            0    152.90205    240.92861    147.87847    1.4029041    365.04232   -48296.259    1556.6634    -144814.9   -44.225045   -29.656015    22.109117    9.0099945    7.8144567 
   43400        143.4    542.30221      184.928    727.23021            0            0    153.12251    241.27692    147.90279    1.4023921     364.9383   -48271.346    1557.2317   -144740.41   -44.141613     -29.4874    22.124545    9.0080866    7.8135128 
   43500        143.5     542.8896    184.88266    727.77226            0            0    153.33756    241.62506    147.92698    1.4018786    364.84882    -48253.51    1557.8021   -144687.13   -44.067528   -29.336094    22.139974    9.0061838    7.8125781 
   43600        143.6    543.47224    184.84359    728.31583            0            0    153.54805    241.97315    147.95105    1.4013638    364.77173   -48242.759    1558.3744   -144655.07   -44.002661   -29.202677    22.155402    9.0042858    7.8116521 
   43700        143.7     544.0512    184.80965    728.86085            0            0     153.7549    242.32131    147.97499    1.4008478    364.70475   -48239.075    1558.9484   -144644.19   -43.946813   -29.087584    22.170831     9.002392     7.810734 
   43800        143.8    544.62761    184.77967    729.40728            0            0    153.95914    242.66968     147.9988    1.4003309    364.64559   -48242.415    1559.5239   -144654.35   -43.899716   -28.991102    22.186259    9.0005021    7.8098231 
   43900        143.9    545.20266     184.7525    729.95515            0            0    154.16181    243.01838    148.02247    1.3998133    364.59196   -48252.712    1560.1006   -144685.36   -43.861048   -28.913384    22.201688    8.9986156    7.8089186 
   44000          144    545.77756    184.72701    730.50457            0            0    154.36401    243.36755    148.04601    1.3992951    364.54167   -48269.872    1560.6782   -144736.93   -43.830433   -28.854451    22.217117     8.996732    7.8080196 
   44100        144.1    546.35355    184.70215    731.05569            0            0    154.56682    243.71731    148.06941    1.3987767     364.4926    -48293.78    1561.2567   -144808.72   -43.807455   -28.814203    22.232545    8.9948509    7.8071254 
   44200        144.2    546.93182    184.67692    731.60874            0            0    154.77134    244.06781    148.09268    1.3982582    364.44282   -48324.291    1561.8356   -144900.29   -43.791667   -28.792428    22.247974    8.9929719     7.806235 
   44300        144.3    547.51354    184.65045    732.16398            0            0    154.97857    244.41917     148.1158    1.3977399    364.39058    -48361.24    1562.4148   -145011.15   -43.782595   -28.788817    22.263402    8.9910945    7.8053475 
   44400        144.4    548.09978    184.62196    732.72175            0            0    155.18948    244.77152    148.13878    1.3972219    364.33436   -48404.435     1562.994   -145140.72   -43.779755   -28.802971    22.278831    8.9892183    7.8044621 
   44500        144.5    548.69157    184.59082    733.28239            0            0    155.40495      245.125    148.16162    1.3967046    364.27291   -48453.663    1563.5729   -145288.37   -43.782655   -28.834419    22.294259    8.9873429    7.8035779 
   44600        144.6    549.28979    184.55653    733.84631            0            0    155.62575    245.47972    148.18431    1.3961881    364.20524   -48508.688    1564.1513   -145453.39   -43.790808   -28.882627    22.309688     8.985468     7.802694 
   44700        144.7    549.89521    184.51873    734.41394            0            0    155.85254    245.83582    148.20686    1.3956726    364.13064   -48569.251     1564.729      -145635    -43.80374   -28.947012    22.325116    8.9835931    7.8018095 
   44800        144.8    550.50848    184.47722     734.9857            0            0    156.08582     246.1934    148.22926    1.3951583    364.04874   -48635.075    1565.3058   -145832.38   -43.820998   -29.026955    22.340545    8.9817179    7.8009235 
   44900        144.9    551.13009    184.43197    735.56205            0            0    156.32598     246.5526     148.2515    1.3946455    363.95943   -48705.863    1565.8814   -146044.63   -43.842156   -29.121813    22.355974    8.9798421    7.8000353 
   45000          145    551.76037    184.38305    736.14342            0            0    156.57326    246.91351     148.2736    1.3941344     363.8629   -48781.302    1566.4555   -146270.81   -43.866825   -29.230932    22.371402    8.9779654    7.7991439 
   45100        145.1    552.39952    184.33073    736.73025            0            0    156.82772    247.27626    148.29554     1.393625    363.75964   -48861.061    1567.0281   -146509.94   -43.894653   -29.353652    22.386831    8.9760875    7.7982487 
   45200        145.2    553.04756    184.27537    737.32293            0            0     157.0893    247.64093    148.31732    1.3931176    363.65039   -48944.797    1567.5988   -146760.98   -43.925338   -29.489323    22.402259    8.9742082    7.7973487 
   45300        145.3    553.70438    184.21746    737.92184            0            0    157.35778    248.00764    148.33895    1.3926124    363.53612   -49032.153    1568.1675   -147022.86   -43.958623   -29.637308    22.417688    8.9723271    7.7964434 
   45400        145.4     554.3697    184.15762    738.52731            0            0    157.63279    248.37648    148.36042    1.3921095    363.41802   -49122.764     1568.734    -147294.5   -43.994305   -29.796992    22.433116    8.9704441    7.7955318 
   45500        145.5    555.04311    184.09653    739.13964            0            0    157.91384    248.74754    148.38173    1.3916091    363.29747   -49216.254    1569.2981   -147574.76   -44.032235   -29.967788    22.448545    8.9685589    7.7946135 
   45600        145.6     555.7241    184.03495    739.75905            0            0    158.20031    249.12091    148.40288    1.3911113    363.17596   -49312.244    1569.8596   -147862.51   -44.072318   -30.149138    22.463973    8.9666714    7.7936876 
   45700        145.7    556.41201    183.97371    740.38572            0            0    158.49147    249.49668    148.42386    1.3906162     363.0551   -49410.349    1570.4185   -148156.59   -44.114512   -30.340517    22.479402    8.9647814    7.7927537 
   45800        145.8    557.10611    183.91365    741.01976            0            0    158.78651    249.87492    148.44468    1.3901241    362.93658   -49510.184    1570.9745   -148455.85   -44.158831   -30.541434    22.494831    8.9628887     7.791811 
   45900        145.9    557.80559    183.85562    741.66121            0            0    159.08454    250.25572    148.46533    1.3896349    362.82207   -49611.361    1571.5275   -148759.13   -44.205335    -30.75143    22.510259    8.9609931    7.7908591 
   46000          146    558.50958    183.80048    742.31006            0            0    159.38462    250.63915    148.48582    1.3891489    362.71324     -49713.5    1572.0773   -149065.28   -44.254134   -30.970077    22.525688    8.9590945    7.7898973 
   46100        146.1    559.21719    183.74903    742.96621            0            0    159.68577    251.02529    148.50613    1.3886661    362.61171   -49816.222    1572.6239   -149373.16   -44.305382   -31.196974    22.541116    8.9571928    7.7889252 
   46200        146.2    559.92748    183.70203    743.62951            0            0    159.98699    251.41422    148.52627    1.3881866    362.51897   -49919.155    1573.1671   -149681.67   -44.359269   -31.431744    22.556545    8.9552878    7.7879424 
   46300        146.3    560.63955    183.66019    744.29973            0            0    160.28732    251.80599    148.54623    1.3877106    362.43639   -50021.939    1573.7067   -149989.73   -44.416021   -31.674026    22.571973    8.9533793    7.7869482 
   46400        146.4     561.3525    183.62409    744.97659            0            0    160.58579    252.20069    148.56602    1.3872381    362.36516   -50124.222    1574.2427   -150296.27   -44.475892   -31.923471    22.587402    8.9514672    7.7859424 
   46500        146.5    562.06551    183.59424    745.65976            0            0     160.8815    252.59839    148.58563    1.3867692    362.30626   -50225.666    1574.7749   -150600.28   -44.539154   -32.179735     22.60283    8.9495514    7.7849245 
   46600        146.6     562.7778    183.57103    746.34883            0            0    161.17359    252.99914    148.60506    1.3863041    362.26046   -50325.948    1575.3033    -150900.8   -44.606099    -32.44247    22.618259    8.9476317     7.783894 
   46700        146.7    563.48866    183.55472    747.04338            0            0    161.46132    253.40303    148.62431    1.3858428    362.22826   -50424.762    1575.8277    -151196.9   -44.677026   -32.711319    22.633688    8.9457078    7.7828508 
   46800        146.8    564.19751    183.54543    747.74293            0            0    161.74402    253.81011    148.64337    1.3853854    362.20992   -50521.816     1576.348   -151487.71   -44.752237   -32.985906    22.649116    8.9437797    7.7817943 
   46900        146.9    564.90385    183.54315    748.44699            0            0    162.02114    254.22046    148.66225    1.3849319    362.20542   -50616.842    1576.8641   -151772.43    -44.83203   -33.265832    22.664545    8.9418471    7.7807243 
   47000          147    565.60732    183.54772    749.15504            0            0    162.29223    254.63414    148.68094    1.3844826    362.21446   -50709.588    1577.3759    -152050.3   -44.916694   -33.550665    22.679973    8.9399098    7.7796405 
   47100        147.1    566.30767    183.55888    749.86654            0            0      162.557    255.05122    148.69944    1.3840374    362.23647   -50799.826    1577.8833   -152320.63   -45.006505   -33.839935    22.695402    8.9379677    7.7785425 
   47200        147.2    567.00479    183.57618    750.58097            0            0    162.81527    255.47177    148.71775    1.3835964    362.27061   -50887.347    1578.3862   -152582.81   -45.101717   -34.133129     22.71083    8.9360203    7.7774302 
   47300        147.3    567.69871    183.59908     751.2978            0            0      163.067    255.89585    148.73586    1.3831597    362.31581   -50971.968    1578.8846   -152836.27   -45.202562   -34.429687    22.726259    8.9340676    7.7763034 
   47400        147.4    568.38959    183.62693    752.01652            0            0    163.31229    256.32353    148.75377    1.3827274    362.37076   -51053.525    1579.3782   -153080.54   -45.309241   -34.728998    22.741687    8.9321092    7.7751616 
   47500        147.5    569.07771    183.65894    752.73665            0            0    163.55135    256.75487    148.77149    1.3822995    362.43393    -51131.88     1579.867   -153315.19   -45.421926   -35.030395    22.757116    8.9301449    7.7740049 
   47600        147.6    569.76348    183.69426    753.45774            0            0    163.78454    257.18993      148.789    1.3818762    362.50364   -51206.916     1580.351   -153539.87   -45.540757   -35.333162    22.772544    8.9281743    7.7728331 
   47700        147.7    570.44742    183.73197    754.17939            0            0    164.01232    257.62878    148.80632    1.3814575    362.57805   -51278.541      1580.83   -153754.32   -45.665837   -35.636525    22.787973    8.9261972    7.7716459 
   47800        147.8    571.13015    183.77108    754.90122            0            0    164.23524    258.07148    148.82342    1.3810434    362.65523   -51346.685     1581.304   -153958.32   -45.797233   -35.939662    22.803402    8.9242132    7.7704434 
   47900        147.9    571.81237    183.81056    755.62294            0            0    164.45398    258.51807    148.84032     1.380634    362.73315     -51411.3    1581.7729   -154151.72   -45.934978     -36.2417     22.81883     8.922222    7.7692254 
   48000          148    572.49488    183.84939    756.34428            0            0    164.66925    258.96863    148.85701    1.3802295    362.80977   -51472.359    1582.2365   -154334.46   -46.079071   -36.541726    22.834259    8.9202232     7.767992 
   48100        148.1    573.17851    183.88653    757.06504            0            0    164.88184    259.42318    148.87349    1.3798297    362.88307   -51529.858    1582.6949    -154506.5   -46.229474   -36.838786    22.849687    8.9182166     7.766743 
   48200        148.2    573.86412    183.92099     757.7851            0            0    165.09258    259.88178    148.88976    1.3794348    362.95106   -51583.811     1583.148   -154667.92   -46.386122   -37.131899    22.865116    8.9162017    7.7654786 
   48300        148.3     574.5526    183.95179    758.50439            0            0    165.30231    260.34448    148.90581    1.3790448    363.01185   -51634.255    1583.5957    -154818.8   -46.548917   -37.420062    22.880544    8.9141781    7.7641989 
   48400        148.4    575.24483    183.97806    759.22289            0            0    165.51189     260.8113    148.92164    1.3786598    363.06369   -51681.241     1584.038    -154959.3   -46.717739   -37.702256    22.895973    8.9121456    7.7629039 
   48500        148.5    575.94168    183.99897    759.94066            0            0    165.72215    261.28228    148.93726    1.3782797    363.10496    -51724.84    1584.4748   -155089.65   -46.892445   -37.977465    22.911401    8.9101038     7.761594 
   48600        148.6    576.64397    184.01382    760.65779            0            0    165.93387    261.75744    148.95265    1.3779046    363.13426   -51765.139    1584.9061    -155210.1   -47.072871   -38.244676     22.92683    8.9080522    7.7602691 
   48700        148.7    577.35245      184.022    761.37445            0            0    166.14781    262.23681    148.96783    1.3775345     363.1504   -51802.239     1585.332   -155320.96   -47.258841   -38.502899    22.942259    8.9059906    7.7589298 
   48800        148.8     578.0678    184.02304    762.09084            0            0    166.36462    262.72039    148.98278    1.3771693    363.15245   -51836.257    1585.7523   -155422.57   -47.450168   -38.751171    22.957687    8.9039186    7.7575762 
   48900        148.9    578.79061    184.01659     762.8072            0            0     166.5849     263.2082    148.99751    1.3768091    363.13972   -51867.321    1586.1672   -155515.33   -47.646658   -38.988572    22.973116    8.9018358    7.7562087 
   49000          149    579.52138    184.00245    763.52383            0            0    166.80913    263.70022    149.01202    1.3764539    363.11182   -51895.572    1586.5766   -155599.65   -47.848115   -39.214235    22.988544    8.8997418    7.7548277 
   49100        149.1    580.26045    183.98056    764.24101            0            0    167.03769    264.19646     149.0263    1.3761035    363.06862    -51921.16    1586.9805      -155676   -48.054342   -39.427355    23.003973    8.8976365    7.7534338 
   49200        149.2    581.00807    183.95101    764.95908            0            0    167.27082    264.69689    149.04036    1.3757581     363.0103   -51944.246     1587.379   -155744.85   -48.265147   -39.627199    23.019401    8.8955194    7.7520273 
   49300        149.3    581.76435    183.91402    765.67837            0            0    167.50866    265.20149    149.05419    1.3754174    362.93732   -51964.999    1587.7721    -155806.7   -48.480344   -39.813118     23.03483    8.8933902    7.7506088 
   49400        149.4    582.52925    183.86998    766.39922            0            0    167.75121    265.71024     149.0678    1.3750816    362.85039   -51983.595      1588.16    -155862.1   -48.699757   -39.984552    23.050258    8.8912486    7.7491789 
   49500        149.5     583.3026    183.81937    767.12197            0            0    167.99832     266.2231    149.08118    1.3747504    362.75052   -52000.217    1588.5426   -155911.59    -48.92322   -40.141038    23.065687    8.8890943    7.7477383 
   49600        149.6     584.0841    183.76282    767.84692            0            0    168.24975    266.74001    149.09434    1.3744238    362.63893   -52015.052      1588.92   -155955.72   -49.150579   -40.282217    23.081116    8.8869272    7.7462875 
   49700        149.7     584.8733    183.70107    768.57437            0            0     168.5051    267.26094    149.10727    1.3741018    362.51708   -52028.294    1589.2924   -155995.09   -49.381692   -40.407838    23.096544    8.8847468    7.7448274 
   49800        149.8    585.66965    183.63496     769.3046            0            0    168.76386    267.78581    149.11997    1.3737842     362.3866   -52040.139    1589.6598   -156030.28   -49.616431   -40.517759    23.111973     8.882553    7.7433585 
   49900        149.9    586.47246    183.56538    770.03784            0            0    169.02542    268.31458    149.13246    1.3734709     362.2493   -52050.787    1590.0223   -156061.89   -49.854678   -40.611954    23.127401    8.8803455    7.7418816 
   50000          150    587.28095    183.49333    770.77428            0            0    169.28907    268.84716    149.14472    1.3731619    362.10711   -52060.439    1590.3801   -156090.53   -50.096327   -40.690506     23.14283    8.8781242    7.7403975 
Loop time of 11.6858 on 1 procs for 50000 steps with 171 atoms

Performance: 0.370 ns/day, 64.921 hours/ns, 4278.711 timesteps/s
76.7% CPU use with 1 MPI tasks x 1 OpenMP threads

MPI task timing breakdown:
Section |  min time  |  avg time  |  max time  |%varavg| %total
---------------------------------------------------------------
Pair    | 0.67242    | 0.67242    | 0.67242    |   0.0 |  5.75
Bond    | 4.9846     | 4.9846     | 4.9846     |   0.0 | 42.65
Neigh   | 0.0049932  | 0.0049932  | 0.0049932  |   0.0 |  0.04
Comm    | 1.1558     | 1.1558     | 1.1558     |   0.0 |  9.89
Output  | 0.14369    | 0.14369    | 0.14369    |   0.0 |  1.23
Modify  | 4.5366     | 4.5366     | 4.5366     |   0.0 | 38.82
Other   |            | 0.1878     |            |       |  1.61

Nlocal:        171.000 ave         171 max         171 min
Histogram: 1 0 0 0 0 0 0 0 0 0
Nghost:        1605.00 ave        1605 max        1605 min
Histogram: 1 0 0 0 0 0 0 0 0 0
Neighs:        178.000 ave         178 max         178 min
Histogram: 1 0 0 0 0 0 0 0 0 0

Total # of neighbors = 178
Ave neighs/atom = 1.0409357
Ave special neighs/atom = 11.824561
Neighbor list builds = 8
Dangerous builds = 0
#run                             10000000

write_data   sistema_tension.data
System init for write_data ...
Total wall time: 0:00:32
