
# Puede usarse solo el ensamble NPT o emplear el ensamble para preparar el sistema para ser comprimido

timestep                0.001
reset_timestep          0

fix                             1 all npt temp 300 300 1 iso 0.0 0.0 1 drag 2
thermo                          100   # imprima cada 1000 puntos
thermo_style            custom step time temp pxx pyy pzz lx ly lz
thermo_style            custom step time pe ke etotal evdwl ecoul ebond eangle edihed density temp press vol pxx pyy pzz lx ly lz
run                             100000
Neighbor list info ...
  update every 1 steps, delay 10 steps, check yes
  max neighbors/atom: 2000, page size: 100000
  master list distance cutoff = 2.09
  ghost atom cutoff = 6
  binsize = 1.045, bins = 24 11 10
  1 neighbor lists, perpetual/occasional/extra = 1 0 0
  (1) pair lj/cut/coul/cut, perpetual
      attributes: half, newton on
      pair build: half/bin/newton
      stencil: half/bin/3d/newton
      bin: standard
WARNING: Bond/angle/dihedral extent > half of periodic box length (src/domain.cpp:933)
Per MPI rank memory allocation (min/avg/max) = 13.39 | 13.39 | 13.39 Mbytes
Step Time PotEng KinEng TotEng E_vdwl E_coul E_bond E_angle E_dihed Density Temp Press Volume Pxx Pyy Pzz Lx Ly Lz 
       0            0    126.93288    198.96621    325.89909            0            0    0.1132932    3.0833698    123.73622   0.86686592    392.64141    3610.2841    2519.2471    3353.6949    3796.1119    3681.0456    24.366479    10.699565    9.6629974 
     100          0.1    128.14691    196.97444    325.12134            0            0    1.2980089    3.1005467    123.74835   0.85829214    388.71083   -2293.8559    2544.4128    -2583.437   -1883.2602   -2414.8704    24.447345    10.735075    9.6950665 
     200          0.2    127.75471    195.89361    323.64832            0            0    0.8127429    3.1791882    123.76278   0.86254672    386.57792    576.97349    2531.8622    219.40171    897.24778    614.27099    24.407083    10.717395    9.6790996 
     300          0.3    128.39867    193.45345    321.85212            0            0    1.3000954    3.3190562    123.77952   0.86283316     381.7625    709.95025    2531.0217    297.80547    1035.9941    796.05115    24.404382    10.716209    9.6780284 
     400          0.4    129.82037    190.01774    319.83811            0            0    2.5039699    3.5180277    123.79838   0.85984631    374.98243   -1413.5573    2539.8137   -1870.6077   -1002.4819   -1367.5821    24.432607    10.728603    9.6892217 
     500          0.5     130.3845    187.32158    317.70608            0            0    2.7897337    3.7754186    123.81935   0.86398786    369.66181     1340.839    2527.6391    821.28498    1662.8094    1538.4225    24.393505    10.711433     9.673715 
     600          0.6    132.20854    183.37103    315.57957            0            0    4.2767313    4.0894758    123.84233   0.86083757    361.86576   -909.09115    2536.8891   -1471.4738    -498.4313   -757.36838    24.423225    10.724483    9.6855012 
     700          0.7    133.53864    180.03753    313.57617            0            0     5.213321    4.4581131    123.86721   0.86264076    355.28741    231.15308    2531.5862   -386.17774    610.03517    469.60181    24.406196    10.717005    9.6787479 
     800          0.8    135.32142    176.43632    311.75774            0            0    6.5467247    4.8807362    123.89396   0.86279322    348.18075    237.05703    2531.1389   -430.50264    624.84303    516.83071    24.404758    10.716374    9.6781778 
     900          0.9    137.43654    172.68535    310.12189            0            0    8.1594402    5.3546541    123.92245   0.86178912    340.77856    -551.4872     2534.088   -1266.4757   -126.03349    -261.9524    24.414233    10.720535    9.6819351 
    1000            1    139.33665     169.3367    308.67335            0            0    9.5049335    5.8790875    123.95263   0.86348304    334.17032    506.23905    2529.1168   -262.24808    904.56863    876.39659    24.398258     10.71352    9.6755999 
    1100          1.1    141.73781    165.67452    307.41234            0            0    11.301145    6.4522371    123.98443   0.86234736    326.94335   -374.54335    2532.4476   -1190.1338    66.405945  0.097806456    24.408963    10.718221    9.6798455 
    1200          1.2    143.99643    162.34546    306.34188            0            0    12.906415    7.0722599    124.01775   0.86316992    320.37375    84.994543    2530.0342   -782.21883    522.10931    515.09315    24.401207    10.714815    9.6767697 
    1300          1.3    146.43953      159.024    305.46353            0            0    14.648703    7.7382679    124.05256   0.86330357    313.81916    73.074905    2529.6426   -844.42647    524.34863    539.30255    24.399948    10.714262    9.6762703 
    1400          1.4    149.00372    155.76019     304.7639            0            0     16.46692    8.4480585    124.08874   0.86301723    307.37832   -225.62115    2530.4819     -1192.95    251.38199    264.70453    24.402646    10.715447    9.6773404 
    1500          1.5    151.49231    152.74542    304.23773            0            0    18.165448    9.2006088    124.12625   0.86376733    301.42896    185.91436    2528.2844     -833.717    665.04214    726.41793    24.395581    10.712344    9.6745383 
    1600          1.6    154.14285    149.73328    303.87612            0            0    19.983563    9.9942632    124.16502   0.86340662    295.48477   -160.95581    2529.3406   -1231.2127    348.83879    399.50644    24.398977    10.713836    9.6758853 
    1700          1.7    156.71376    146.95755    303.67132            0            0    21.681422    10.827378    124.20496   0.86382059    290.00714    23.969799    2528.1285   -1098.9824    547.41253    623.47923    24.395079    10.712124    9.6743394 
    1800          1.8    159.31255    144.30446    303.61701            0            0    23.367722    11.698791    124.24604   0.86394814    284.77151    15.294935    2527.7553   -1160.4173    561.15708    645.14497    24.393879    10.711597    9.6738633 
    1900          1.9    161.90491    141.79684    303.70175            0            0    25.010111    12.606651    124.28815   0.86391757    279.82294   -98.881665    2527.8447   -1327.7775    475.14405    555.98846    24.394166    10.711723    9.6739774 
    2000            2    164.41432    139.50307     303.9174            0            0    26.533371    13.549701    124.33125   0.86428518    275.29642    62.079804    2526.7695   -1221.3875    656.65602    750.97094    24.390707    10.710204    9.6726057 
    2100          2.1    166.91777    137.33597    304.25374            0            0    28.016171    14.526335    124.37527   0.86421303    271.01983   -74.419671    2526.9805   -1412.4614    553.39362    635.80876    24.391386    10.710502    9.6728748 
    2200          2.2    169.32206    135.37877    304.70083            0            0    29.366982    15.534946    124.42013   0.86444412    267.15749  -0.30552221     2526.305   -1394.1758    655.55662    737.70261    24.389212    10.709548    9.6720128 
    2300          2.3    171.66163    133.58789    305.24953            0            0    30.621737    16.574119    124.46577    0.8645552    263.62336   -4.7053531    2525.9804    -1454.958    684.27247    756.56944    24.388168    10.709089    9.6715986 
    2400          2.4    173.92013    131.96895    305.88908            0            0    31.765915    17.642087    124.51213   0.86460327    260.42852   -48.557398    2525.8399   -1555.8526     677.2561    732.92432    24.387716    10.708891    9.6714193 
    2500          2.5    176.06799    130.54231     306.6103            0            0    32.771527    18.737325    124.55914   0.86480261    257.61318    14.604282    2525.2577   -1550.6718    775.83987     818.6448    24.385842    10.708068    9.6706762 
    2600          2.6    178.13245    129.27106    307.40351            0            0    33.667627    19.858111    124.60671   0.86482567    255.10448   -39.007435    2525.1904   -1662.7054    764.11996    781.56318    24.385625    10.707973    9.6705902 
    2700          2.7    180.07967    128.17998    308.25965            0            0    34.422187    21.002683     124.6548   0.86496524    252.95134   -9.3945134    2524.7829   -1692.3205    835.05143    829.08555    24.384313    10.707397      9.67007 
    2800          2.8     181.9243    127.24615    309.17045            0            0    35.051647    22.169332    124.70332   0.86505342    251.10851   -11.353107    2524.5256   -1754.0233    877.85242    842.11154    24.383485    10.707033    9.6697414 
    2900          2.9    183.66318    126.46449    310.12767            0            0    35.554829    23.356153     124.7522   0.86511472    249.56597   -28.252453    2524.3467   -1831.1583    908.52885    837.87204    24.382909     10.70678     9.669513 
    3000            3    185.28951    125.83467    311.12418            0            0     35.92682    24.561317    124.80138   0.86523235    248.32308   -3.4375245    2524.0035   -1867.0892    981.69709    875.07954    24.381804    10.706295    9.6690748 
    3100          3.1    186.81879    125.33443    312.15322            0            0    36.185147    25.782877    124.85077   0.86527836     247.3359    -24.49425    2523.8693   -1949.1657    1012.7708    862.91212    24.381372    10.706105    9.6689035 
    3200          3.2    188.24438    124.96435    313.20873            0            0    36.325232    27.018846    124.90031   0.86536833    246.60558   -12.719443    2523.6069   -1998.7212    1077.6125    882.95038    24.380527    10.705734    9.6685683 
    3300          3.3    189.57895    124.70645     314.2854            0            0    36.361797    28.267238    124.94992   0.86543609    246.09664   -13.590439    2523.4093   -2061.0518    1132.2363    888.04417     24.37989    10.705455     9.668316 
    3400          3.4      190.829    124.54934    315.37834            0            0    36.303508    29.525966    124.99952   0.86549222     245.7866   -20.165588    2523.2456   -2129.1163    1183.2238    885.39574    24.379363    10.705223     9.668107 
    3500          3.5     192.0002    124.48319     316.4834            0            0    36.158184    30.792969    125.04905   0.86556937    245.65606   -10.470725    2523.0207   -2180.8483    1251.6521    897.78404    24.378639    10.704905    9.6678198 
    3600          3.6    193.10725    124.48962    317.59687            0            0     35.94269    32.066127    125.09843   0.86561781    245.66875   -18.806994    2522.8795   -2250.3721    1304.2687    889.68242    24.378184    10.704705    9.6676394 
    3700          3.7    194.15645    124.55915     318.7156            0            0    35.665545    33.343307     125.1476    0.8656834    245.80596   -14.204115    2522.6884   -2306.6222    1370.8044     893.2055    24.377569    10.704435    9.6673952 
    3800          3.8    195.16171     124.6752    319.83692            0            0    35.342864    34.622379    125.19647   0.86574031    246.03499   -14.662642    2522.5226   -2367.4311    1433.7098    889.73345    24.377034      10.7042    9.6671834 
    3900          3.9    196.13444    124.82413    320.95857            0            0     34.98827    35.901188    125.24499   0.86579327    246.32887   -17.303998    2522.3683   -2429.7748    1495.5741    882.28876    24.376537    10.703982    9.6669863 
    4000            4    197.08548     124.9933    322.07878            0            0    34.614806    37.177598    125.29307   0.86585528    246.66272   -13.599011    2522.1876    -2484.977      1564.43    879.74993    24.375955    10.703727    9.6667555 
    4100          4.1    198.02878    125.16738    323.19617            0            0    34.238636    38.449477    125.34067   0.86590718    247.00626   -16.980297    2522.0364   -2546.2943    1627.0968    868.25667    24.375468    10.703513    9.6665624 
    4200          4.2    198.97448    125.33527    324.30975            0            0    33.872066    39.714708    125.38771   0.86596727    247.33756   -15.258245    2521.8614   -2601.3839    1695.1189    860.49034    24.374905    10.703265    9.6663388 
    4300          4.3    199.93505    125.48391    325.41896            0            0    33.529707    40.971208    125.43414   0.86602555    247.63089   -15.556383    2521.6917   -2657.1913    1761.3858    849.13644    24.374358    10.703025    9.6661219 
    4400          4.4    200.92116    125.60242    326.52358            0            0    33.224352    42.216916    125.47989   0.86608415    247.86477    -16.68046    2521.5211   -2712.3498    1826.8089    835.49947    24.373808    10.702784    9.6659039 
    4500          4.5    201.94239    125.68138    327.62377            0            0    32.967658    43.449817    125.52491   0.86614826    248.02059   -15.320505    2521.3345   -2763.3749    1894.3367    823.07664    24.373207     10.70252    9.6656654 
    4600          4.6    203.00859    125.71142    328.72001            0            0    32.771499    44.667937    125.56915   0.86621044    248.07987   -16.734234    2521.1535   -2815.3405    1958.6383    806.49948    24.372623    10.702263    9.6654341 
    4700          4.7    204.12708    125.68603    329.81311            0            0    32.645163    45.869352    125.61257   0.86627793    248.02975   -16.122472     2520.957   -2863.2702     2024.091    790.81174     24.37199    10.701986    9.6651831 
    4800          4.8    205.30505     125.5991    330.90414            0            0     32.59774    47.052197    125.65511   0.86634674    247.85821   -16.303926    2520.7568   -2909.7983    2087.7132    773.17331    24.371345    10.701702    9.6649272 
    4900          4.9    206.54785    125.44657    331.99442            0            0    32.636459    48.214663    125.69673   0.86641766     247.5572   -16.782665    2520.5505   -2954.2471    2149.7235    754.17561     24.37068     10.70141    9.6646635 
    5000            5    207.85938    125.22608    333.08546            0            0    32.766969     49.35501     125.7374   0.86649256    247.12209   -16.274573    2520.3326   -2995.1514     2211.103    735.22466    24.369978    10.701102     9.664385 
    5100          5.1    209.24252     124.9364    334.17891            0            0    32.993875    50.471561    125.77708   0.86656836    246.55042   -16.836897    2520.1121   -3034.3867    2269.6078    714.26823    24.369267     10.70079    9.6641032 
    5200          5.2    210.69813     124.5784    335.27653            0            0    33.319674    51.562713    125.81574   0.86664767    245.84396   -16.580296    2519.8815   -3069.8868    2326.8106    693.33524    24.368524    10.700463    9.6638084 
    5300          5.3    212.22603    124.15408    336.38011            0            0    33.745741    52.626934    125.85335   0.86672864    245.00659   -16.620152    2519.6461    -3102.591    2381.3873    671.34326    24.367765     10.70013    9.6635075 
    5400          5.4     213.8244    123.66701    337.49141            0            0    34.271738    53.662768    125.88989   0.86681127     244.0454    -16.75175    2519.4059   -3132.1239    2433.2965    648.57224    24.366991     10.69979    9.6632004 
    5500          5.5    215.48998    123.12216    338.61215            0            0    34.895809    54.668835    125.92534   0.86689596     242.9702   -16.477488    2519.1598   -3157.8221    2482.7888    625.60084    24.366197    10.699442    9.6628857 
    5600          5.6    217.21837    122.52554    339.74392            0            0    35.614868     55.64383    125.95968   0.86698112    241.79283   -16.603217    2518.9124   -3180.3309     2528.866    601.65521    24.365399    10.699091    9.6625694 
    5700          5.7    219.00371    121.88445    340.88816            0            0     36.42429    56.586527    125.99289   0.86706739    240.52768   -16.386319    2518.6617    -3198.755    2572.0383    577.55781    24.364591    10.698737    9.6622489 
    5800          5.8    220.83915    121.20696     342.0461            0            0    37.318394    57.495777    126.02498   0.86715362    239.19072   -16.268947    2518.4113   -3213.3916    2611.6842    552.90057    24.363784    10.698382    9.6619286 
    5900          5.9    222.71675    120.50203    343.21878            0            0    38.290323    58.370508    126.05592   0.86723942    237.79961    -16.16848    2518.1621   -3224.0225    2647.7047     527.8124     24.36298    10.698029    9.6616099 
    6000            6    224.62768    119.77928    344.40696            0            0    39.332234    59.209726    126.08572   0.86732451    236.37332   -15.893176    2517.9151   -3230.3308    2680.1223      502.529    24.362183    10.697679     9.661294 
    6100          6.1    226.56241    119.04874    345.61115            0            0    40.435519    60.012515    126.11438   0.86740784    234.93168   -15.760265    2517.6732   -3232.5199    2708.4852    476.75393    24.361403    10.697337    9.6609846 
    6200          6.2    228.51073     118.3209    346.83163            0            0    41.590802    60.778034     126.1419   0.86748925    233.49535   -15.479447    2517.4369   -3230.1988    2732.9479    450.81256    24.360641    10.697002    9.6606824 
    6300          6.3    230.46203    117.60636    348.06839            0            0    42.788229     61.50552    126.16828   0.86756791    232.08528   -15.227283    2517.2087   -3223.4569    2753.2335    424.54154    24.359905    10.696679    9.6603904 
    6400          6.4    232.40536    116.91584     349.3212            0            0    44.017531    62.194289    126.19354   0.86764326     230.7226   -14.972284    2516.9901   -3212.1912    2769.2878    397.98653      24.3592    10.696369    9.6601107 
    6500          6.5    234.32961    116.25997    350.58958            0            0    45.268197    62.843731    126.21768   0.86771483     229.4283   -14.641956    2516.7824   -3196.2737    2781.1183    371.22956     24.35853    10.696075    9.6598451 
    6600          6.6     236.2237    115.64917    351.87286            0            0    46.529648    63.453316    126.24073   0.86778189    228.22294   -14.362821     2516.588   -3175.7933    2788.5635    344.14134    24.357903    10.695799    9.6595963 
    6700          6.7    238.07661    115.09356    353.17018            0            0    47.791324    64.022593     126.2627   0.86784406     227.1265   -14.022973    2516.4077   -3150.6194     2791.717    316.83351    24.357321    10.695544    9.6593656 
    6800          6.8    239.87766    114.60283    354.48049            0            0     49.04287    64.551191     126.2836   0.86790073    226.15808   -13.694291    2516.2434   -3120.8249    2790.5192    289.22277    24.356791    10.695311    9.6591554 
    6900          6.9    241.61651    114.18613    355.80264            0            0    50.274224    65.038819    126.30347   0.86795146    225.33577   -13.366359    2516.0963   -3086.4215    2785.0162    261.30626    24.356316    10.695103    9.6589672 
    7000            7    243.28334      113.852    357.13534            0            0    51.475741     65.48527    126.32233   0.86799585    224.67639   -13.013112    2515.9676   -3047.4278    2775.2952    233.09319    24.355901    10.694921    9.6588025 
    7100          7.1    244.86892    113.60826    358.47718            0            0    52.638304    65.890421     126.3402   0.86803346    224.19539   -12.686343    2515.8586   -3003.9627    2761.3948    204.50888    24.355549    10.694766     9.658663 
    7200          7.2    246.36474    113.46195    359.82669            0            0    53.753388    66.254236    126.35712   0.86806402    223.90666   -12.344161    2515.7701   -2956.0759    2743.4708    175.57261    24.355263    10.694641    9.6585497 
    7300          7.3    247.76304    113.41926     361.1823            0            0    54.813153    66.576764    126.37312    0.8680872    223.82241   -12.016869    2515.7029   -2903.9135    2721.6359      146.227    24.355047    10.694545    9.6584637 
    7400          7.4    249.05689    113.48546    362.54235            0            0     55.81049     66.85815    126.38825   0.86810281    223.95307   -11.702173    2515.6576   -2847.6143    2696.0607     116.4471    24.354901    10.694481    9.6584058 
    7500          7.5    250.24022    113.66491    363.90513            0            0    56.739067    67.098627    126.40253   0.86811068    224.30718   -11.391624    2515.6348   -2787.3367    2666.9479    86.213875    24.354827    10.694449    9.6583766 
    7600          7.6    251.30789    113.96092    365.26881            0            0    57.593355    67.298524    126.41601    0.8681107    224.89134   -11.107122    2515.6348   -2723.2948     2634.496     55.47746    24.354827    10.694449    9.6583766 
    7700          7.7    252.25565    114.37585     366.6315            0            0    58.368639    67.458265    126.42875   0.86810284    225.71016   -10.833608    2515.6575   -2655.6919    2598.9635    24.227572      24.3549    10.694481    9.6584057 
    7800          7.8    253.08016      114.911    367.99117            0            0    59.061017    67.578374    126.44077   0.86808711    226.76624   -10.584221    2515.7031    -2584.785    2560.6051   -7.5727993    24.355047    10.694546    9.6584641 
    7900          7.9      253.779    115.56668    369.34568            0            0    59.667384    67.659472    126.45214   0.86806359    228.06015   -10.359054    2515.7713   -2510.8428    2519.7095   -39.943832    24.355267    10.694642    9.6585513 
    8000            8    254.35059    116.34215    370.69274            0            0    60.185398    67.702281    126.46291   0.86803242    229.59047   -10.155617    2515.8616   -2434.1564    2476.5883   -72.898722    24.355559     10.69477    9.6586669 
    8100          8.1    254.79421    117.23572    372.02993            0            0    60.613453    67.707623    126.47314   0.86799378    231.35384   -9.9831141    2515.9736   -2355.0516    2431.5598   -106.45746     24.35592    10.694929    9.6588102 
    8200          8.2    255.10991    118.24471    373.35461            0            0    60.950616    67.676422    126.48287   0.86794793    233.34499   -9.8360292    2516.1065   -2273.8622    2384.9728   -140.61869    24.356349    10.695117    9.6589803 
    8300          8.3    255.29846    119.36554      374.664            0            0    61.196584    67.609702    126.49218   0.86789516    235.55685   -9.7197387    2516.2595   -2190.9535    2337.1795   -175.38523    24.356843    10.695334    9.6591761 
    8400          8.4    255.36132    120.59376    375.95508            0            0    61.351615    67.508587    126.50111   0.86783581    237.98064   -9.6342808    2516.4316   -2106.7048    2288.5485   -210.74663    24.357398    10.695578    9.6593963 
    8500          8.5    255.30052    121.92411    377.22463            0            0     61.41647    67.374297    126.50975   0.86777026    240.60596   -9.5785264    2516.6217   -2021.5113    2239.4584   -246.68268    24.358011    10.695847    9.6596395 
    8600          8.6    255.11865    123.35057    378.46922            0            0    61.392345    67.208151    126.51815   0.86769893    243.42095   -9.5557622    2516.8286   -1935.7879    2190.2892   -283.16861    24.358679     10.69614    9.6599041 
    8700          8.7    254.81875    124.86645     379.6852            0            0    61.280807     67.01156    126.52639   0.86762229    246.41239    -9.563351    2517.0509   -1849.9564    2141.4303   -320.16395    24.359396    10.696455    9.6601886 
    8800          8.8    254.40428    126.46442     380.8687            0            0    61.083736    66.786025    126.53452   0.86754082    249.56584   -9.6028164    2517.2873   -1764.4528    2093.2669   -357.62251    24.360158     10.69679    9.6604909 
    8900          8.9    253.87902    128.13663    382.01565            0            0    60.803268    66.533132    126.54262   0.86745503    252.86579    -9.673464    2517.5362   -1679.7184    2046.1837   -395.48562    24.360962    10.697143    9.6608094 
    9000            9    253.24706    129.87474     383.1218            0            0     60.44175    66.254547    126.55077   0.86736545    256.29578   -9.7740679    2517.7962   -1596.1986    2000.5601   -433.68371      24.3618    10.697511     9.661142 
    9100          9.1    252.51273       131.67    384.18274            0            0    60.001697    65.952014    126.55902   0.86727263    259.83857   -9.9050585    2518.0657    -1514.342    1956.7655   -472.13867    24.362669    10.697893    9.6614866 
    9200          9.2    251.68057    133.51335    385.19391            0            0     59.48576    65.627342    126.56746   0.86717714    263.47624    -10.06449     2518.343   -1434.5933    1915.1597   -510.75986    24.363563    10.698285    9.6618413 
    9300          9.3    250.75528    135.39542     386.1507            0            0    58.896711    65.282404    126.57616   0.86707954    267.19034   -10.252019    2518.6264   -1357.3943    1876.0869   -549.44857    24.364478    10.698687    9.6622037 
    9400          9.4    249.74174    137.30667    387.04841            0            0    58.237429    64.919127    126.58518   0.86698042    270.96202   -10.466401    2518.9144   -1283.1784    1839.8751    -588.0959    24.365406    10.699094     9.662572 
    9500          9.5    248.64498     139.2374    387.88239            0            0    57.510903    64.539481     126.5946   0.86688036    274.77214   -10.706177    2519.2051   -1212.3677    1806.8333   -626.58417    24.366343    10.699506    9.6629437 
    9600          9.6     247.4702    141.17783    388.64803            0            0    56.720244    64.145475    126.60448   0.86677994    278.60139   -10.970531     2519.497   -1145.3713    1777.2482   -664.78852    24.367284    10.699919    9.6633169 
    9700          9.7    246.22274    143.11814    389.34088            0            0      55.8687    63.739145    126.61489   0.86667975    282.43041   -11.257714    2519.7883   -1082.5806    1751.3836   -702.57623    24.368223    10.700331    9.6636892 
    9800          9.8    244.90814    145.04855     389.9567            0            0    54.959694    63.322544     126.6259   0.86658036    286.23991   -11.566617    2520.0773    -1024.368    1729.4775   -739.80936    24.369155     10.70074    9.6640586 
    9900          9.9    243.53216    146.95938    390.49154            0            0    53.996852    62.897733    126.63757   0.86648236    290.01074   -11.895777    2520.3623   -971.08378    1711.7413   -776.34482    24.370074    10.701144     9.664423 
   10000           10    242.10077    148.84106    390.94183            0            0    52.984046    62.466768    126.64996   0.86638631    293.72406   -12.243662    2520.6417   -923.05322    1698.3582   -812.03595    24.370974    10.701539    9.6647801 
   10100         10.1    240.62025    150.68422    391.30447            0            0    51.925437    62.031694    126.66312   0.86629277    297.36137   -12.608996    2520.9139    -880.5753    1689.4824   -846.73409    24.371851    10.701924    9.6651279 
   10200         10.2    239.09716    152.47974     391.5769            0            0     50.82552    61.594529    126.67711    0.8662023    300.90466   -12.990146    2521.1772   -843.91998    1685.2389   -880.28935      24.3727    10.702297    9.6654644 
   10300         10.3     237.5384    154.21877    391.75718            0            0    49.689161    61.157257    126.69198   0.86611544    304.33649   -13.385741      2521.43   -813.32713    1685.7225   -912.55261    24.373514    10.702655    9.6657875 
   10400         10.4    235.95124    155.89283    391.84407            0            0     48.52164    60.721819    126.70778   0.86603272    307.64008   -13.794275    2521.6709    -789.0048    1690.9985   -943.37656     24.37429    10.702996    9.6660953 
   10500         10.5    234.34332    157.49378    391.83709            0            0    47.328679    60.290098    126.72454   0.86595465     310.7994   -14.214228    2521.8982    -771.1282    1701.1027   -972.61723    24.375023    10.703317    9.6663857 
   10600         10.6    232.72268    159.01391    391.73659            0            0    46.116464    59.863915     126.7423   0.86588176    313.79925   -14.644185    2522.1105   -759.83903     1716.042   -1000.1355    24.375707    10.703618     9.666657 
   10700         10.7    231.09778    160.44597    391.54375            0            0    44.891657    59.445016     126.7611   0.86581451    316.62528   -15.082597    2522.3064   -755.24475    1735.7954   -1025.7984    24.376338    10.703895    9.6669072 
   10800         10.8    229.47743    161.78317     391.2606            0            0    43.661395    59.035069    126.78097    0.8657534    319.26412   -15.528019    2522.4844   -757.41851    1760.3149   -1049.4805    24.376911    10.704146    9.6671347 
   10900         10.9    227.87085    163.01922    390.89007            0            0    42.433277    58.635651    126.80192   0.86569888    321.70335    -15.97895    2522.6433   -766.39903     1789.527   -1071.0648    24.377423    10.704371    9.6673376 
   11000           11    226.28756    164.14834     390.4359            0            0    41.215334    58.248246    126.82398   0.86565139    323.93157   -16.433865    2522.7817   -782.19089    1823.3339   -1090.4446    24.377869    10.704567    9.6675144 
   11100         11.1    224.73738    165.16527    389.90265            0            0    40.015983    57.874238    126.84716   0.86561135    325.93838   -16.891259    2522.8984   -804.76497    1861.6153   -1107.5241    24.378245    10.704732    9.6676635 
   11200         11.2    223.23035    166.06528    389.29564            0            0    38.843974    57.514907    126.87147   0.86557916    327.71448    -17.34953    2522.9922   -834.05906    1904.2298   -1122.2193    24.378547    10.704865    9.6677833 
   11300         11.3    221.77666    166.84419    388.62085            0            0    37.708312    57.171424    126.89692    0.8655552    329.25158   -17.807064     2523.062   -869.97867    1951.0168   -1134.4594    24.378772    10.704963    9.6678725 
   11400         11.4    220.38654    167.49835    387.88489            0            0    36.618174    56.844855    126.92351   0.86553982     330.5425   -18.262152    2523.1069   -912.39791    2001.7982   -1144.1868    24.378916    10.705027    9.6679298 
   11500         11.5    219.07018    168.02469    387.09487            0            0    35.582806    56.536149    126.95123   0.86553334    331.58118   -18.712998    2523.1257   -961.16054    2056.3799   -1151.3584    24.378977    10.705054    9.6679539 
   11600         11.6    217.83764     168.4207    386.25834            0            0    34.611415     56.24615    126.98008   0.86553606    332.36267   -19.157718    2523.1178   -1016.0811    2114.5536   -1155.9457    24.378952    10.705042    9.6679438 
   11700         11.7    216.69867    168.68451    385.38318            0            0    33.713046    55.975585    127.01004   0.86554824    332.88327     -19.5943    2523.0823   -1076.9459    2176.0986   -1157.9356    24.378837    10.704992    9.6678984 
   11800         11.8    215.66265    168.81486    384.47751            0            0     32.89646    55.725078    127.04111   0.86557009    333.14051   -20.020632    2523.0186   -1143.5145    2240.7828   -1157.3302    24.378632    10.704902     9.667817 
   11900         11.9     214.7384    168.81121    383.54961            0            0    32.169999     55.49514    127.07326   0.86560181     333.1333   -20.434485    2522.9262   -1215.5207    2308.3647   -1154.1474    24.378334    10.704771     9.667699 
   12000           12    213.93411    168.67372    382.60782            0            0    31.541449     55.28618    127.10648   0.86564352    332.86198   -20.833525    2522.8046   -1292.6739    2378.5942   -1148.4208    24.377943    10.704599    9.6675437 
   12100         12.1    213.25715    168.40335     381.6605            0            0    31.017913    55.098504    127.14074   0.86569532    332.32843    -21.21534    2522.6537   -1374.6603    2451.2142   -1140.1999    24.377457    10.704386    9.6673509 
   12200         12.2      212.714    168.00188    380.71589            0            0    30.605673    54.932323    127.17601   0.86575723    331.53618   -21.577446    2522.4733    -1461.144    2525.9615   -1129.5498    24.376876    10.704131    9.6671204 
   12300         12.3    212.31008    167.47201     379.7821            0            0    30.310066    54.787751    127.21227   0.86582923    330.49052   -21.917327    2522.2635   -1551.7686    2602.5678   -1116.5512      24.3762    10.703834    9.6668525 
   12400         12.4    212.04966    166.81734      378.867            0            0    30.135367    54.664814    127.24948   0.86591124    329.19858   -22.232463    2522.0246   -1646.1579    2680.7608   -1101.3003     24.37543    10.703496    9.6665473 
   12500         12.5    211.93575    166.04245     377.9782            0            0    30.084679    54.563453    127.28762    0.8660031    327.66941   -22.520363    2521.7571   -1743.9175    2760.2647   -1083.9083    24.374568    10.703118    9.6662055 
   12600         12.6    211.97002    165.15293    377.12295            0            0    30.159838     54.48353    127.32665    0.8661046    325.91404   -22.778608    2521.4616   -1844.6357    2840.8012   -1064.5013    24.373616    10.702699    9.6658278 
   12700         12.7     212.1527    164.15541    376.30811            0            0    30.361331    54.424832    127.36653   0.86621545    323.94553   -23.004884    2521.1389    -1947.885    2922.0899   -1043.2195    24.372576    10.702243    9.6654155 
   12800         12.8    212.48255    163.05754    375.54009            0            0    30.688234    54.387078    127.40724   0.86633528    321.77897   -23.197027    2520.7902   -2053.2228    3003.8492   -1020.2175    24.371453    10.701749    9.6649699 
   12900         12.9     212.9568    161.86797    374.82478            0            0    31.138161    54.369922    127.44872   0.86646367    319.43148   -23.353057    2520.4166    -2160.193    3085.7966   -995.66277    24.370249    10.701221    9.6644924 
   13000           13    213.57115    160.59639    374.16754            0            0    31.707241    54.372961    127.49095   0.86660012    316.92213   -23.471213    2520.0198    -2268.327    3167.6494   -969.73611     24.36897    10.700659    9.6639852 
   13100         13.1    214.31973    159.25341    373.57314            0            0    32.390106    54.395736    127.53388   0.86674405    314.27188   -23.549993    2519.6013   -2377.1445    3249.1249   -942.63039    24.367621    10.700067    9.6634503 
   13200         13.2    215.19514    157.85056     373.0457            0            0    33.179909    54.437743    127.57749   0.86689481    311.50348   -23.588174    2519.1632   -2486.1553     3329.941   -914.55016    24.366208    10.699446      9.66289 
   13300         13.3     216.1885    156.40017    372.58867            0            0    34.068353    54.498433    127.62172   0.86705169    308.64127    -23.58485    2518.7073   -2594.8603    3409.8166   -885.71086    24.364738    10.698801    9.6623072 
   13400         13.4    217.28951    154.91532    372.20483            0            0    35.045752    54.577222    127.66654   0.86721393    305.71106   -23.539446    2518.2361   -2702.7522     3488.472   -856.33814    24.363219    10.698134    9.6617046 
   13500         13.5     218.4865    153.40973    371.89623            0            0    36.101106    54.673489    127.71191   0.86738069    302.73991   -23.451744     2517.752   -2809.3177    3565.6295   -826.66703    24.361658    10.697448    9.6610854 
   13600         13.6    219.76657     151.8976    371.66417            0            0    37.222196    54.786586    127.75779   0.86755108    299.75586   -23.321892    2517.2575   -2914.0381    3641.0136   -796.94108    24.360062    10.696748    9.6604529 
   13700         13.7     221.1157    150.39354    371.50924            0            0    38.395706    54.915843    127.80415   0.86772419    296.78775   -23.150418    2516.7553   -3016.3911    3714.3513   -767.41148    24.358442    10.696037    9.6598104 
   13800         13.8    222.51886     148.9124    371.43127            0            0    39.607352    55.060564    127.85095   0.86789902    293.86486   -22.938238    2516.2483   -3115.8519    3785.3732   -738.33606    24.356807    10.695318    9.6591617 
   13900         13.9    223.96023    147.46912    371.42935            0            0    40.842046    55.220041    127.89814    0.8680746    291.01668   -22.686656    2515.7394   -3211.8951    3853.8134   -709.97827    24.355164    10.694597    9.6585105 
   14000           14     225.4233    146.07859    371.50189            0            0    42.084055    55.393549     127.9457   0.86824988    288.27259   -22.397366    2515.2315   -3303.9966    3919.4106   -682.60611    24.353525    10.693877    9.6578605 
   14100         14.1    226.89113    144.75547     371.6466            0            0    43.317197    55.580353    127.99358   0.86842382    285.66153   -22.072452    2514.7277   -3391.6346    3981.9081   -656.49086    24.351899    10.693163    9.6572156 
   14200         14.2     228.3465    143.51404    371.86053            0            0     44.52503    55.779712    128.04175   0.86859538    283.21167   -21.714378     2514.231   -3474.2925    4041.0553   -631.90588    24.350296    10.692459    9.6565798 
   14300         14.3    229.77213    142.36802    372.14015            0            0     45.69107    55.990875    128.09018   0.86876351    280.95012   -21.325983    2513.7445   -3551.4605    4096.6077   -609.12517    24.348725     10.69177    9.6559568 
   14400         14.4    231.15093    141.33042    372.48135            0            0    46.799007     56.21309    128.13883   0.86892717    278.90252   -20.910468     2513.271    -3622.638    4148.3285   -588.42193    24.347196    10.691098    9.6553505 
   14500         14.5     232.4662    140.41335    372.87955            0            0     47.83293    56.445602    128.18767   0.86908537    277.09276   -20.471387    2512.8135    -3687.336    4195.9888   -570.06694    24.345719    10.690449    9.6547646 
   14600         14.6    233.70187    139.62783     373.3297            0            0    48.777559    56.687655    128.23665   0.86923711    275.54262   -20.012624    2512.3749   -3745.0801    4239.3691   -554.32685    24.344302    10.689827    9.6542028 
   14700         14.7    234.84272    138.98366    373.82638            0            0    49.618477    56.938491    128.28576   0.86938148     274.2714   -19.538374    2511.9577   -3795.4132    4278.2604   -541.46232    24.342955    10.689236    9.6536684 
   14800         14.8    235.87466    138.48919    374.36385            0            0    50.342356    57.197359    128.33494   0.86951759    273.29561   -19.053109    2511.5644   -3837.8983    4312.4651   -531.72613    24.341684    10.688678    9.6531646 
   14900         14.9    236.78487    138.15121    374.93608            0            0    50.937188    57.463504    128.38418   0.86964464    272.62863   -18.561547    2511.1975    -3872.122    4341.7984   -525.36106    24.340499    10.688157    9.6526945 
   15000           15    237.56211    137.97472    375.53683            0            0    51.392491    57.736179    128.43344   0.86976189    272.28035   -18.068598     2510.859   -3897.6979    4366.0899   -522.59778    24.339405    10.687677    9.6522607 
   15100         15.1    238.19684    137.96282    376.15966            0            0    51.699516    58.014639    128.48269    0.8698687    272.25687   -17.579313    2510.5507   -3914.2697    4385.1844   -523.65264    24.338409     10.68724    9.6518657 
   15200         15.2    238.68146    138.11656    376.79801            0            0    51.851428    58.298143    128.53188   0.86996452    272.56025   -17.098811    2510.2742   -3921.5149    4398.9438   -528.72534    24.337515    10.686847    9.6515113 
   15300         15.3    239.01043    138.43476    377.44519            0            0    51.843467    58.585958    128.58101   0.87004891    273.18819     -16.6322    2510.0307   -3919.1483    4407.2484    -537.9967    24.336728    10.686502    9.6511993 
   15400         15.4    239.18046    138.91396    378.09442            0            0    51.673082    58.877355    128.63002   0.87012153    274.13386   -16.184489    2509.8212   -3906.9254    4409.9983   -551.62634    24.336051    10.686204    9.6509308 
   15500         15.5    239.19055    139.54833    378.73888            0            0    51.340037    59.171613     128.6789   0.87018217    275.38573   -15.760482    2509.6463   -3884.6457    4407.1147   -569.75047    24.335486    10.685956    9.6507066 
   15600         15.6    239.04211     140.3296    379.37171            0            0    50.846481    59.468021    128.72761   0.87023075    276.92749   -15.364681    2509.5062   -3852.1555    4398.5412   -592.47978    24.335033    10.685757     9.650527 
   15700         15.7    238.73897    141.24709    379.98607            0            0    50.196979    59.765875    128.77612   0.87026732    278.73808   -15.001167    2509.4008   -3809.3513    4384.2453   -619.89747    24.334692    10.685608    9.6503918 
   15800         15.8     238.2874    142.28776    380.57516            0            0     49.39851    60.064481    128.82441   0.87029202    280.79174   -14.673495    2509.3295   -3756.1821    4364.2191   -652.05743    24.334462    10.685506    9.6503005 
   15900         15.9    237.69601     143.4363    381.13231            0            0    48.460413    60.363159    128.87244   0.87030518    283.05827   -14.384589    2509.2916   -3692.6512    4338.4802   -688.98276    24.334339    10.685453    9.6502519 
   16000           16    236.97573    144.67531    381.65104            0            0    47.394302    60.661238    128.92019   0.87030719    285.50335   -14.136645    2509.2858   -3618.8182    4307.0727   -730.66445    24.334321    10.685444    9.6502444 
   16100         16.1    236.13963    145.98553    382.12516            0            0    46.213927    60.958063    128.96764    0.8702986    288.08894    -13.93105    2509.3105   -3534.7999    4270.0673   -777.06056    24.334401    10.685479    9.6502762 
   16200         16.2    235.20275    147.34611    382.54886            0            0    44.935001    61.252995    129.01476   0.87028005    290.77391   -13.768322     2509.364    -3440.771    4227.5616   -828.09561    24.334574    10.685555    9.6503448 
   16300         16.3    234.18191    148.73495    382.91686            0            0    43.574985    61.545409    129.06152   0.87025226    293.51467   -13.648069    2509.4442   -3336.9637      4179.68   -883.66049    24.334833    10.685669    9.6504475 
   16400         16.4    233.09544    150.12912    383.22456            0            0    42.152838      61.8347    129.10791   0.87021604    296.26593   -13.568981    2509.5486   -3223.6671    4126.5729    -943.6128     24.33517    10.685817    9.6505813 
   16500         16.5    231.96291    151.50526    383.46817            0            0    40.688727    62.120284     129.1539   0.87017228    298.98162   -13.528846    2509.6748   -3101.2254    4068.4165   -1007.7776    24.335578    10.685997    9.6507431 
   16600         16.6    230.80479    152.84005    383.64484            0            0    39.203723    62.401595    129.19948    0.8701219    301.61569   -13.524605    2509.8201   -2970.0363     4005.411   -1075.9485    24.336048    10.686203    9.6509294 
   16700         16.7    229.64218    154.11067    383.75285            0            0    37.719464    62.678093    129.24462   0.87006583    304.12316    -13.55243    2509.9819   -2830.5475    3937.7798   -1147.8896    24.336571    10.686432    9.6511367 
   16800         16.8    228.49639    155.29531     383.7917            0            0    36.257811    62.949261    129.28932   0.87000503    306.46093   -13.607832    2510.1573   -2683.2538    3865.7676   -1223.3373    24.337137    10.686681    9.6513615 
   16900         16.9    227.38866    156.37355    383.76221            0            0    34.840491    63.214612    129.33356   0.86994045    308.58875   -13.685793    2510.3436   -2528.6926    3789.6379   -1302.0027     24.33774    10.686946    9.6516003 
   17000           17    226.33975    157.32683    383.66659            0            0    33.488746    63.473682    129.37732     0.869873    310.46996   -13.780908    2510.5383   -2367.4401    3709.6718   -1383.5745    24.338369    10.687222    9.6518498 
   17100         17.1    225.36964    158.13878    383.50842            0            0    32.222988    63.726042    129.42061   0.86980352    312.07225   -13.887537    2510.7388   -2200.1057    3626.1648   -1467.7216    24.339017    10.687506    9.6521068 
   17200         17.2    224.49717     158.7955    383.29267            0            0    31.062464    63.971292    129.46341   0.86973284    313.36824    -13.99996    2510.9429   -2027.3278    3539.4248   -1554.0968    24.339676    10.687796    9.6523682 
   17300         17.3    223.73974    159.28583    383.02557            0            0    30.024952    64.209065    129.50572   0.86966166    314.33585   -14.112513    2511.1484   -1849.7679    3449.7694   -1642.3391     24.34034    10.688088    9.6526316 
   17400         17.4    223.11304    159.60146    382.71449            0            0    29.126475    64.439028    129.54753   0.86959062    314.95871   -14.219716    2511.3535   -1668.1055    3357.5238   -1732.0775    24.341003    10.688379    9.6528944 
   17500         17.5    222.63079    159.73701    382.36781            0            0    28.381055    64.660885    129.58885   0.86952026    315.22622   -14.316382    2511.5567   -1483.0332    3263.0178   -1822.9337    24.341659    10.688667    9.6531548 
   17600         17.6    222.30456    159.69008    381.99464            0            0      27.8005    64.874374    129.62968   0.86945101    315.13361     -14.3977    2511.7568   -1295.2515    3166.5839   -1914.5255    24.342306    10.688951     9.653411 
   17700         17.7    222.14353    159.46115    381.60467            0            0    27.394229     65.07927    129.67003   0.86938321    314.68182   -14.459306    2511.9526   -1105.4641     3068.555   -2006.4689    24.342938    10.689229     9.653662 
   17800         17.8    222.15442    159.05348     381.2079            0            0    27.169143    65.275388    129.70989   0.86931708    313.87733   -14.497324    2512.1437   -914.37336    2969.2623    -2098.381    24.343556      10.6895    9.6539068 
   17900         17.9     222.3414      158.473     380.8144            0            0    27.129536    65.462578    129.74929   0.86925274    312.73181   -14.508406    2512.3297   -722.67639    2869.0335   -2189.8823    24.344156    10.689763     9.654145 
   18000           18    222.70599    157.72811    380.43411            0            0    27.277041     65.64073    129.78822   0.86919019    311.26184    -14.48975    2512.5105   -531.06127     2768.191    -2280.599     24.34474     10.69002    9.6543765 
   18100         18.1    223.24712    156.82949    380.07661            0            0    27.610632     65.80977    129.82672   0.86912936    309.48849   -14.439118    2512.6863   -340.20377    2667.0506   -2370.1642    24.345308    10.690269    9.6546018 
   18200         18.2     223.9611    155.78986    379.75096            0            0    28.126653    65.969665    129.86478   0.86907006    307.43688   -14.354841    2512.8578   -150.76449      2565.92     -2458.22    24.345862    10.690512    9.6548213 
   18300         18.3    224.84174    154.62378    379.46552            0            0    28.818888    66.120417    129.90243   0.86901201    305.13573   -14.235828    2513.0256    36.613608    2465.0977   -2544.4187    24.346404     10.69075    9.6550363 
   18400         18.4    225.88043    153.34741    379.22784            0            0    29.678666    66.262068     129.9397   0.86895488    302.61692   -14.081561    2513.1909    221.30726    2364.8719   -2628.4239    24.346937    10.690985    9.6552479 
   18500         18.5    227.06629    151.97824    379.04453            0            0    30.695004    66.394698    129.97659   0.86889823    299.91501   -13.892097    2513.3547    402.71461    2265.5203   -2709.9112    24.347467    10.691217    9.6554577 
   18600         18.6    228.38632    150.53491    378.92123            0            0    31.854767    66.518422    130.01313   0.86884156    297.06672   -13.668057    2513.5186    580.25653    2167.3085   -2788.5692    24.347996    10.691449    9.6556676 
   18700         18.7    229.82561    149.03688    378.86249            0            0    33.142866    66.633395    130.04935   0.86878435     294.1105   -13.410619    2513.6842    753.37764    2070.4903   -2864.0998     24.34853    10.691684    9.6558796 
   18800         18.8    231.36755    147.50426    378.87181            0            0    34.542475    66.739809    130.08527     0.868726    291.08602     -13.1215     2513.853    921.54706     1975.307   -2936.2185    24.349076    10.691923    9.6560958 
   18900         18.9    232.99406    145.95752    378.95159            0            0     36.03526     66.83789    130.12091   0.86866588    288.03367   -12.802936     2514.027    1084.2588    1881.9871   -3004.6547    24.349637     10.69217    9.6563185 
   19000           19    234.68586    144.41728    379.10314            0            0    37.601641    66.927904    130.15632   0.86860336    284.99414    -12.45766    2514.2079     1241.032    1790.7464   -3069.1513    24.350221    10.692427    9.6565502 
   19100         19.1    236.42271    142.90403    379.32673            0            0     39.22105     67.01015    130.19151   0.86853777    282.00788    -12.08887    2514.3978    1391.4111    1701.7875   -3129.4652    24.350834    10.692696    9.6567933 
   19200         19.2    238.18369    141.43794    379.62163            0            0    40.872213    67.084966    130.22651   0.86846846     279.1147   -11.700198    2514.5985    1534.9657    1615.3003   -3185.3665    24.351482     10.69298    9.6570502 
   19300         19.3    239.94751    140.03864    379.98615            0            0    42.533432    67.152724    130.26135   0.86839479    276.35331   -11.295677    2514.8118    1671.2901    1531.4615   -3236.6386    24.352171    10.693283    9.6573232 
   19400         19.4    241.69278    138.72497    380.41775            0            0    44.182871     67.21383    130.29608   0.86831614     273.7609   -10.879701    2515.0396    1800.0038    1450.4348   -3283.0777    24.352906    10.693605    9.6576148 
   19500         19.5    243.39829    137.51478    380.91306            0            0    45.798856    67.268725    130.33071   0.86823193    271.37269   -10.456987    2515.2835    1920.7505     1372.371   -3324.4925    24.353693    10.693951     9.657927 
   19600         19.6    245.04332    136.42473    381.46805            0            0    47.360154    67.317886    130.36528   0.86814161    269.22159   -10.032537    2515.5452    2033.1984     1297.408    -3360.704    24.354538    10.694322    9.6582619 
   19700         19.7    246.60791    135.47013    382.07804            0            0     48.84627    67.361819    130.39982   0.86804471    267.33778   -9.6115867     2515.826      2137.04    1225.6702   -3391.5449    24.355444     10.69472    9.6586213 
   19800         19.8    248.07315    134.66472    382.73786            0            0    50.237719    67.401065    130.43436   0.86794081    265.74836   -9.1995696    2516.1272    2231.9919     1157.269   -3416.8597    24.356416    10.695147    9.6590067 
   19900         19.9    249.42144    134.02047    383.44191            0            0    51.516302    67.436191    130.46895   0.86782957    264.47699   -8.8020599    2516.4497    2317.7954    1092.3026   -3436.5042    24.357456    10.695604    9.6594194 
   20000           20    250.63675    133.54746    384.18421            0            0    52.665357    67.467798     130.5036   0.86771075    263.54356   -8.4247191    2516.7943    2394.2162    1030.8551   -3450.3455    24.358568    10.696092    9.6598603 
   20100         20.1    251.70487    133.25369    384.95856            0            0    53.670004    67.496508    130.53835    0.8675842    262.96384    -8.073233    2517.1614    2461.0452    972.99708    -3458.262    24.359753    10.696612    9.6603299 
   20200         20.2    252.61357    133.14493     385.7585            0            0    54.517358    67.522971    130.57324   0.86744985     262.7492   -7.7532402    2517.5513    2518.0989    918.78477   -3460.1434     24.36101    10.697164    9.6608286 
   20300         20.3    253.35288    133.22455    386.57743            0            0    55.196728    67.547857    130.60829   0.86730778    262.90633   -7.4702512    2517.9637      2565.22    868.25994   -3455.8907     24.36234    10.697748    9.6613561 
   20400         20.4    253.91517    133.49344     387.4086            0            0    55.699777    67.571853    130.64354   0.86715815    263.43695   -7.2295585    2518.3981    2602.2783    821.44959   -3445.4166    24.363741    10.698363    9.6619118 
   20500         20.5    254.29533    133.94985    388.24518            0            0    56.020658    67.595663    130.67901   0.86700126    264.33764   -7.0361374    2518.8538    2629.1719    778.36561   -3428.6459    24.365211    10.699009    9.6624945 
   20600         20.6    254.49085    134.58938    389.08022            0            0    56.156111        67.62    130.71473   0.86683753    265.59969   -6.8945399    2519.3296    2645.8275    739.00455   -3405.5156    24.366745    10.699682    9.6631028 
   20700         20.7    254.50184    135.40486     389.9067            0            0    56.105517    67.645586    130.75074   0.86666751    267.20897   -6.8087846    2519.8238    2652.2023    703.34741   -3375.9761    24.368338    10.700382    9.6637347 
   20800         20.8    254.33112    136.38643    390.71754            0            0    55.870918    67.673144    130.78705   0.86649185      269.146   -6.7822445    2520.3347    2648.2851    671.35947   -3339.9913    24.369985    10.701105    9.6643877 
   20900         20.9    253.98409    137.52152     391.5056            0            0    55.456992    67.703394     130.8237   0.86631133      271.386   -6.8175385    2520.8599     2634.097    642.99019   -3297.5398    24.371677    10.701848    9.6650589 
   21000           21    253.46873    138.79502    392.26375            0            0    54.870978    67.737048     130.8607   0.86612685    273.89913   -6.9164297    2521.3968    2609.6934    618.17321   -3248.6159    24.373407    10.702608    9.6657451 
   21100         21.1    252.79546     140.1894    392.98486            0            0    54.122569    67.774808    130.89808    0.8659394    276.65081   -7.0797358    2521.9426    2575.1651     596.8264   -3193.2307    24.375166     10.70338    9.6664425 
   21200         21.2    251.97696    141.68497    393.66193            0            0    53.223749    67.817353    130.93586   0.86575007    279.60219    -7.307257    2522.4941    2530.6392    578.85202    -3131.413    24.376943     10.70416    9.6671471 
   21300         21.3      251.028    143.26017    394.28816            0            0    52.188603    67.865342    130.97405   0.86556002    282.71069   -7.5977257     2523.048    2476.2809    564.13703   -3063.2111    24.378727    10.704944    9.6678546 
   21400         21.4    249.96516     144.8919    394.85706            0            0    51.033078    67.919403    131.01268   0.86537047    285.93076   -7.9487824    2523.6006    2412.2944     552.5534   -2988.6942    24.380507    10.705725    9.6685604 
   21500         21.5     248.8066    146.55597    395.36257            0            0    49.774721     67.98013    131.05175   0.86518269    289.21465   -8.3569822    2524.1483    2338.9236    543.95866   -2907.9532     24.38227      10.7065    9.6692598 
   21600         21.6    247.57173    148.22754    395.79927            0            0    48.432377    68.048078    131.09128   0.86499797    292.51333   -8.8178344    2524.6874    2256.4527    538.19647   -2821.1027    24.384006    10.707262    9.6699481 
   21700         21.7    246.28091    149.88158    396.16249            0            0    47.025877    68.123756    131.13127   0.86481759    295.77744   -9.3258777     2525.214    2165.2069    535.09738   -2728.2819    24.385701    10.708006    9.6706203 
   21800         21.8    244.95507    151.49345    396.44852            0            0    45.575702    68.207628    131.17174   0.86464281    298.95831   -9.8747884    2525.7244    2065.5519    534.47968    -2629.656    24.387344    10.708727    9.6712719 
   21900         21.9    243.61543    153.03933    396.65476            0            0     44.10264    68.300101    131.21269   0.86447486    302.00897   -10.457522    2526.2151    1957.8938    536.15039   -2525.4167    24.388923    10.709421    9.6718981 
   22000           22    242.28309    154.49677    396.77987            0            0    42.627444    68.401531    131.25412   0.86431489     304.8851    -11.06648    2526.6827    1842.6773    539.90636   -2415.7831    24.390428    10.710082    9.6724948 
   22100         22.1    240.97873    155.84514    396.82387            0            0    41.170496    68.512214    131.29602   0.86416397    307.54597   -11.693698    2527.1239    1720.3851    545.53548   -2301.0017    24.391848    10.710705    9.6730579 
   22200         22.2    239.72227      157.066    396.78827            0            0     39.75148    68.632387    131.33841   0.86402306    309.95522   -12.331045    2527.5361    1591.5351      552.818   -2181.3462    24.393173    10.711287    9.6735837 
   22300         22.3    238.53257    158.14347    396.67603            0            0    38.389079    68.762226    131.38126   0.86389301     312.0815   -12.970417    2527.9166    1456.6778    561.52796   -2057.1171    24.394397    10.711825    9.6740691 
   22400         22.4    237.42714    159.06446     396.4916            0            0    37.100702    68.901847    131.42459   0.86377452      313.899   -13.603926    2528.2634    1316.3937    571.43461   -1928.6401    24.395513    10.712315    9.6745114 
   22500         22.5    236.42191    159.81886    396.24077            0            0    35.902236    69.051306    131.46837   0.86366816    315.38774   -14.224063    2528.5747     1171.289    582.30398   -1796.2651    24.396514    10.712754    9.6749085 
   22600         22.6    235.53103    160.39957    395.93061            0            0    34.807837      69.2106     131.5126   0.86357437    316.53373   -14.823839    2528.8493    1021.9918    593.90045   -1660.3638    24.397397    10.713142    9.6752588 
   22700         22.7    234.76669    160.80254    395.56923            0            0    33.829765    69.379667    131.55726    0.8634934    317.32894   -15.396888    2529.0865    869.14839    605.98827   -1521.3273     24.39816    10.713477    9.6755612 
   22800         22.8    234.13899    161.02662    395.16561            0            0    32.978249    69.558393    131.60235   0.86342538    317.77114   -15.937538    2529.2857      713.418    618.33314   -1379.5638    24.398801    10.713758    9.6758152 
   22900         22.9    233.65585    161.07347    394.72933            0            0    32.261405    69.746608    131.64784   0.86337029     317.8636   -16.440855    2529.4471     555.4688    630.70374   -1235.4951     24.39932    10.713986     9.676021 
   23000           23    233.32301    160.94733    394.27034            0            0    31.685191    69.944097    131.69372   0.86332797    317.61466   -16.902656    2529.5711    395.97319    642.87312   -1089.5543    24.399718    10.714161    9.6761791 
   23100         23.1    233.14397    160.65475    393.79872            0            0    31.253397    70.150595    131.73998   0.86329812    317.03729   -17.319505    2529.6585    235.60328    654.62012   -942.18191         24.4    10.714285    9.6762907 
   23200         23.2    233.12006    160.20439    393.32445            0            0    30.967677    70.365795    131.78659   0.86328032    316.14854   -17.688691    2529.7107    75.026547    665.73066   -793.82328    24.400167    10.714358    9.6763572 
   23300         23.3     233.2505    159.60669     392.8572            0            0    30.827619    70.589351    131.83353   0.86327405    314.96905   -18.008199    2529.7291   -85.098346    675.99891   -644.92516    24.400226    10.714384    9.6763806 
   23400         23.4     233.5325    158.87365    392.40615            0            0    30.830834    70.820878    131.88079   0.86327867    313.52245   -18.276674    2529.7155   -244.12559     685.2284   -495.93283    24.400183    10.714365    9.6763634 
   23500         23.5    233.96139    158.01848    391.97987            0            0    30.973086    71.059961    131.92834   0.86329345    311.83486   -18.493387    2529.6722   -401.42599    693.23304    -347.2872    24.400043    10.714304    9.6763081 
   23600         23.6    234.53074    157.05542    391.58616            0            0    31.248435    71.306151    131.97616   0.86331761    309.93434   -18.658189    2529.6014   -556.39055    699.83799   -199.42201    24.399816    10.714204    9.6762178 
   23700         23.7    235.23259    155.99942    391.23202            0            0    31.649403    71.558971    132.02422   0.86335028    307.85043   -18.771477    2529.5057   -708.43375    704.88053   -52.761208    24.399508    10.714069    9.6760958 
   23800         23.8    236.05758    154.86595    390.92353            0            0    32.167158    71.817922     132.0725   0.86339052    305.61363   -18.834149    2529.3878   -856.99667    708.21074    92.283485    24.399129    10.713902    9.6759455 
   23900         23.9    236.99516    153.67073    390.66589            0            0    32.791702    72.082477    132.12098   0.86343739    303.25497   -18.847567    2529.2505   -1001.5498    709.69222    235.31492    24.398688    10.713709    9.6757704 
   24000           24    238.03379    152.42954    390.46333            0            0     33.51207    72.352093    132.16962   0.86348988     300.8056   -18.813505    2529.0968   -1141.5958     709.2026    375.95266    24.398193    10.713491    9.6755743 
   24100         24.1    239.16115    151.15802    390.31917            0            0     34.31654    72.626204    132.21841   0.86354698    298.29636   -18.734114    2528.9295   -1276.6714    706.63411    513.83499    24.397655    10.713255    9.6753611 
   24200         24.2    240.36436    149.87146    390.23582            0            0    35.192829    72.904228     132.2673   0.86360765    295.75746   -18.611865    2528.7519   -1406.3503    701.89398    648.62073    24.397084    10.713004    9.6751345 
   24300         24.3    241.63014    148.58466     390.2148            0            0    36.128302    73.185568    132.31627   0.86367088    293.21809    -18.44951    2528.5667   -1530.2442    694.90479     779.9909    24.396489    10.712743    9.6748984 
   24400         24.4    242.94507    147.31177    390.25683            0            0    37.110159    73.469612    132.36529   0.86373565    290.70615   -18.250025    2528.3771   -1648.0051    685.60478     907.6502    24.395879    10.712475    9.6746565 
   24500         24.5     244.2957    146.06611    390.36181            0            0    38.125633    73.755735    132.41433   0.86380095    288.24796   -18.016567     2528.186   -1759.3261    673.94802    1031.3283    24.395264    10.712205    9.6744127 
   24600         24.6    245.66881    144.86012    390.52893            0            0    39.162159    74.043298    132.46335   0.86386581    285.86805   -17.752419    2527.9962   -1863.9429    659.90455    1150.7811    24.394654    10.711937    9.6741706 
   24700         24.7    247.05151     143.7052    390.75671            0            0    40.207544    74.331654    132.51231   0.86392929    283.58892   -17.460948    2527.8104   -1961.6346    643.46034    1265.7914    24.394056    10.711675    9.6739337 
   24800         24.8    248.43145    142.61165     391.0431            0            0    41.250118    74.620143    132.56119   0.86399049     281.4309   -17.145554    2527.6313   -2052.2239    624.61725      1376.17     24.39348    10.711422    9.6737052 
   24900         24.9     249.7969     141.5886     391.3855            0            0    42.278865    74.908099    132.60993   0.86404856    279.41201   -16.809631    2527.4615   -2135.5776    603.39276     1481.756    24.392933    10.711182    9.6734885 
   25000           25     251.1369    140.64397    391.78087            0            0    43.283545    75.194845    132.65851    0.8641027    277.54787   -16.456522    2527.3031   -2211.6065    579.81963    1582.4173    24.392424    10.710958    9.6732865 
   25100         25.1    252.44137    139.78444    392.22581            0            0    44.254794    75.479698    132.70688   0.86415214    275.85166   -16.089482    2527.1585   -2280.2649    553.94542     1678.051    24.391959    10.710754     9.673102 
   25200         25.2    253.70117    139.01543     392.7166            0            0    45.184201     75.76197      132.755    0.8641962     274.3341   -15.711646    2527.0297   -2341.5499    525.83182    1768.5832    24.391544    10.710572    9.6729376 
   25300         25.3    254.90816    138.34113    393.24929            0            0    46.064375    76.040966    132.80282   0.86423425    273.00342   -15.325996    2526.9184   -2395.5006    495.55384    1853.9688    24.391186    10.710415    9.6727957 
   25400         25.4    256.05528    137.76448    393.81976            0            0    46.888986    76.315989    132.85031   0.86426571    271.86546   -14.935334    2526.8265   -2442.1962    463.19882    1934.1913     24.39089    10.710285    9.6726783 
   25500         25.5    257.13653    137.28725    394.42378            0            0    47.652782    76.586342    132.89741   0.86429007    270.92369   -14.542257    2526.7552   -2481.7545    428.86531    2009.2625    24.390661    10.710184    9.6725874 
   25600         25.6      258.147    136.91007    395.05707            0            0    48.351601    76.851325    132.94408   0.86430687    270.17935   -14.149138    2526.7061   -2514.3302    392.66179     2079.221    24.390503    10.710115    9.6725247 
   25700         25.7    259.08286    136.63247    395.71533            0            0     48.98235    77.110244    132.99027   0.86431574    269.63155   -13.758109    2526.6802   -2540.1116    354.70517    2144.1321     24.39042    10.710078    9.6724917 
   25800         25.8    259.94131      136.453    396.39431            0            0    49.542971    77.362406    133.03593   0.86431633    269.27738   -13.371045    2526.6785   -2559.3187    315.11929    2204.0863    24.390414    10.710076    9.6724895 
   25900         25.9    260.72054    136.36927    397.08981            0            0    50.032393    77.607127    133.08102   0.86430836    269.11214   -12.989561    2526.7018   -2572.1998    274.03319    2259.1979    24.390489    10.710109    9.6725192 
   26000           26    261.41968    136.37804    397.79772            0            0    50.450468    77.843734    133.12548   0.86429162    269.12946   -12.614997    2526.7507   -2579.0281    231.57936    2309.6038    24.390647    10.710178    9.6725816 
   26100         26.1    262.03872    136.47536    398.51408            0            0    50.797888    78.071564    133.16927   0.86426592     269.3215   -12.248428    2526.8258   -2580.0985    187.89194    2355.4613    24.390888    10.710284    9.6726775 
   26200         26.2     262.5784    136.65661    399.23501            0            0    51.076102    78.289972    133.21233   0.86423114    269.67918   -11.890662    2526.9275   -2575.7236    143.10485    2396.9468    24.391216    10.710428    9.6728072 
   26300         26.3    263.04016    136.91666    399.95683            0            0    51.287209    78.498331    133.25462   0.86418719    270.19237   -11.542252     2527.056   -2566.2303    97.349967    2434.2536    24.391629    10.710609    9.6729712 
   26400         26.4    263.42599    137.24997    400.67597            0            0    51.433862    78.696035     133.2961   0.86413401    270.85013   -11.203511    2527.2116   -2551.9555    50.755355    2467.5896    24.392129    10.710829    9.6731696 
   26500         26.5    263.73836    137.65068    401.38904            0            0    51.519152    78.882505     133.3367   0.86407159    271.64089   -10.874532    2527.3941   -2533.2426      3.44352    2497.1754    24.392717    10.711087    9.6734026 
   26600         26.6    263.98009    138.11274    402.09283            0            0    51.546503    79.057189     133.3764   0.86399994    272.55272   -10.555213    2527.6037   -2510.4374   -44.470174     2523.242    24.393391    10.711383      9.67367 
   26700         26.7    264.15428    138.63002    402.78429            0            0    51.519562    79.219569    133.41514   0.86391908    273.57351   -10.245289    2527.8403    -2483.885   -92.878966    2546.0281    24.394152    10.711717    9.6739718 
   26800         26.8    264.26414    139.19639    403.46054            0            0    51.442095    79.369158    133.45289   0.86382908    274.69121   -9.9443614    2528.1037   -2453.9255   -141.68598    2565.7784    24.394999    10.712089    9.6743077 
   26900         26.9    264.31301    139.80587    404.11888            0            0    51.317893    79.505511     133.4896   0.86372999    275.89395   -9.6519386    2528.3937   -2420.8915   -190.80533     2582.741    24.395932    10.712499    9.6746777 
   27000           27    264.30414    140.45264    404.75678            0            0    51.150681    79.628219    133.52524   0.86362189    277.17029   -9.3674724    2528.7102   -2385.1047   -240.16295    2597.1652     24.39695    10.712946    9.6750813 
   27100         27.1    264.24074    141.13117     405.3719            0            0    50.944045     79.73692    133.55977   0.86350487     278.5093   -9.0903979    2529.0528   -2346.8737   -289.69724    2609.2998    24.398052    10.713429    9.6755183 
   27200         27.2    264.12582    141.83625    405.96207            0            0    50.701366    79.831293    133.59316   0.86337903    279.90072   -8.8201724    2529.4215   -2306.4917   -339.35944    2619.3907    24.399237     10.71395    9.6759884 
   27300         27.3    263.96223    142.56307     406.5253            0            0    50.425771    79.911067    133.62539   0.86324445    281.33504   -8.5563127    2529.8158   -2264.2347   -389.11371    2627.6794    24.400505    10.714507    9.6764912 
   27400         27.4    263.75254    143.30721    407.05975            0            0      50.1201    79.976018    133.65642   0.86310124    282.80352   -8.2984297    2530.2356   -2220.3599   -438.93699    2634.4016    24.401855    10.715099    9.6770264 
   27500         27.5     263.4991    144.06466    407.56376            0            0     49.78689    80.025972    133.68624   0.86294949    284.29828   -8.0462587    2530.6805   -2175.1057   -488.81858    2639.7855    24.403285    10.715727    9.6775935 
   27600         27.6      263.204    144.83185    408.03585            0            0    49.428366    80.060808    133.71483   0.86278932    285.81225   -7.7996852    2531.1503   -2128.6904   -538.75941    2644.0508    24.404795     10.71639    9.6781924 
   27700         27.7    262.86908    145.60558    408.47465            0            0     49.04646    80.080453    133.74216   0.86262084    287.33914   -7.5587641    2531.6447   -2081.3128   -588.77121    2647.4077    24.406384    10.717088    9.6788224 
   27800         27.8    262.49597    146.38303    408.87899            0            0    48.642833    80.084887    133.76825   0.86244416    288.87337   -7.3237333    2532.1633   -2033.1523   -638.87528    2650.0564     24.40805     10.71782    9.6794833 
   27900         27.9    262.08613    147.16169    409.24781            0            0     48.21892     80.07414    133.79307   0.86225939    290.40998    -7.095019    2532.7059   -1984.3704   -689.10119    2652.1866    24.409793    10.718585    9.6801746 
   28000           28    261.64089     147.9393    409.58019            0            0    47.775978    80.048296    133.81662   0.86206669    291.94453   -6.8732349    2533.2721   -1935.1113   -739.48527    2653.9768    24.411612    10.719384    9.6808959 
   28100         28.1    261.16153    148.71382    409.87535            0            0    47.315146    80.007484     133.8389    0.8618662    293.47296   -6.6591733    2533.8614   -1885.5036   -790.06892     2655.595    24.413505    10.720215    9.6816465 
   28200         28.2    260.64933    149.48329    410.13262            0            0     46.83752    79.951885    133.85992   0.86165808    294.99144   -6.4537892    2534.4734   -1835.6627   -840.89687    2657.1982     24.41547    10.721078    9.6824259 
   28300         28.3    260.10564    150.24581    410.35145            0            0    46.344219    79.881725     133.8797   0.86144252    296.49622   -6.2581779    2535.1076   -1785.6921   -892.01531    2658.9328    24.417507    10.721972    9.6832334 
   28400         28.4    259.53197    150.99948    410.53145            0            0    45.836464    79.797276    133.89823   0.86121975    297.98351   -6.0735464    2535.7633    -1735.686   -943.47005    2660.9354    24.419612    10.722897    9.6840683 
   28500         28.5    258.93004    151.74226     410.6723            0            0     45.31565    79.698853    133.91553   0.86098999    299.44932   -5.9011794      2536.44   -1685.7316   -995.30454    2663.3326    24.421784     10.72385    9.6849297 
   28600         28.6    258.30187    152.47197    410.77384            0            0    44.783422     79.58681    133.93163   0.86075352    300.88934   -5.7424015    2537.1368   -1635.9114   -1047.5581    2666.2423     24.42402    10.724832    9.6858165 
   28700         28.7    257.64983    153.18621    410.83604            0            0    44.241736    79.461541    133.94655   0.86051064    302.29882   -5.5985364    2537.8529   -1586.3055   -1100.2641     2669.774    24.426318    10.725841    9.6867276 
   28800         28.8    256.97671    153.88231    410.85902            0            0    43.692917    79.323473    133.96032    0.8602617    303.67251   -5.4708636    2538.5873   -1536.9939   -1153.4482    2674.0295    24.428674    10.726876    9.6876619 
   28900         28.9    256.28573    154.55733    410.84305            0            0    43.139708    79.173069    133.97295   0.86000707    305.00459   -5.3605759     2539.339   -1488.0582   -1207.1267    2679.1032    24.431084    10.727934     9.688618 
   29000           29    255.58061    155.20799     410.7886            0            0    42.585299    79.010817    133.98449   0.85974716    306.28861   -5.2687364    2540.1066    -1439.584   -1261.3055    2685.0833    24.433546    10.729015    9.6895942 
   29100         29.1    254.86556    155.83074     410.6963            0            0    42.033349    78.837235    133.99497   0.85948242    307.51755   -5.1962388     2540.889   -1391.6622   -1315.9782    2692.0517    24.436054    10.730117    9.6905889 
   29200         29.2    254.14528    156.42174    410.56702            0            0    41.487988    78.652862    134.00443   0.85921333    308.68383   -5.1437708    2541.6848   -1344.3902   -1371.1257    2700.0846    24.438605    10.731237    9.6916005 
   29300         29.3    253.42497    156.97688    410.40185            0            0    40.953802    78.458258    134.01291   0.85894041    309.77936   -5.1117821    2542.4924   -1297.8731    -1426.715    2709.2527    24.441193    10.732373    9.6926268 
   29400         29.4    252.71025    157.49189    410.20214            0            0    40.435809    78.254002    134.02044    0.8586642    310.79568   -5.1004578    2543.3102   -1252.2242   -1482.6985    2719.6213    24.443814    10.733524     9.693666 
   29500         29.5    252.00716    157.96234     409.9695            0            0    39.939401    78.040686    134.02707   0.85838527    311.72407   -5.1096986    2544.1367   -1207.5655    -1539.014    2731.2504    24.446461    10.734686    9.6947159 
   29600         29.6    251.32206    158.38377    409.70582            0            0     39.47029    77.818911    134.03285    0.8581042    312.55571   -5.1391082      2544.97    -1164.027   -1595.5843    2744.1939     24.44913    10.735858    9.6957743 
   29700         29.7    250.66154    158.75174    409.41328            0            0    39.034421    77.589291    134.03783   0.85782159    313.28188   -5.1879871    2545.8085   -1121.7466   -1652.3173    2758.4999    24.451814    10.737037    9.6968389 
   29800         29.8    250.03237    159.06198    409.09435            0            0    38.637881    77.352444    134.04205   0.85753805    313.89411   -5.2553348    2546.6502   -1080.8691   -1709.1065    2774.2096    24.454509     10.73822    9.6979075 
   29900         29.9    249.44134    159.31046     408.7518            0            0    38.286796    77.108992    134.04555    0.8572542    314.38445   -5.3398594    2547.4935   -1041.5452   -1765.8314     2791.357    24.457208    10.739405    9.6989778 
   30000           30    248.89516    159.49349    408.38865            0            0    37.987208    76.859557     134.0484   0.85697062    314.74565   -5.4399932    2548.3364   -1003.9293   -1822.3586    2809.9679    24.459905     10.74059    9.7000475 
   30100         30.1    248.40035    159.60787    408.00823            0            0    37.744956    76.604762    134.05064   0.85668792    314.97138   -5.5539167    2549.1774   -968.17836   -1878.5422    2830.0588    24.462596    10.741771    9.7011143 
   30200         30.2    247.96309    159.65098    407.61407            0            0    37.565545    76.345227    134.05232   0.85640665    315.05645   -5.6795867    2550.0146   -934.44941   -1934.2257    2851.6363    24.465273    10.742947    9.7021763 
   30300         30.3    247.58907    159.62086    407.20993            0            0    37.454018    76.081568    134.05349   0.85612735    314.99701   -5.8147707    2550.8465   -902.89749   -1989.2427    2874.6958    24.467934    10.744115    9.7032312 
   30400         30.4    247.28341    159.51633    406.79975            0            0     37.41482    75.814396     134.0542   0.85585053    314.79073   -5.9570853    2551.6716   -873.67322   -2043.4186    2899.2205    24.470571    10.745273    9.7042773 
[...]
   43000          143    251.57993    160.49774    412.07768            0            0    36.967594    67.881545    146.73079    0.8356351    316.72745   -1296.1849    2613.4008   -3863.7375   -8.9428617    -15.87425    25.679666    10.660342    9.5465293 
   43100        143.1    251.05854    160.58126     411.6398            0            0    36.682528    67.629242    146.74677   0.83550391    316.89227   -1298.9121    2613.8112   -3871.8859    -8.827737   -16.022802    25.682128    10.661028    9.5464988 
   43200        143.2    250.54819    160.64844    411.19662            0            0    36.395104    67.390504    146.76258   0.83537174    317.02483   -1303.1806    2614.2247   -3884.6215   -8.7300532   -16.190068     25.68459    10.661735     9.546461 
   43300        143.3    250.05383    160.69485    410.74867            0            0    36.109988    67.165626    146.77821   0.83523893    317.11642   -1309.0152    2614.6404   -3902.0228   -8.6482464   -16.374585    25.687052    10.662461    9.5464137 
   43400        143.4    249.58051     160.7162    410.29671            0            0    35.831983    66.954869    146.79366   0.83510583    317.15856   -1316.4358    2615.0571   -3924.1521    -8.580401   -16.574742    25.689514    10.663204    9.5463548 
   43500        143.5    249.13329    160.70845    409.84174            0            0    35.565927    66.758462     146.8089   0.83497277    317.14326   -1325.4557    2615.4739    -3951.054   -8.5242878   -16.788804    25.691976    10.663962    9.5462825 
   43600        143.6    248.71711    160.66789      409.385            0            0    35.316589    66.576599    146.82392   0.83484007    317.06323   -1336.0816    2615.8896   -3982.7525   -8.4774074   -17.014939    25.694439    10.664733    9.5461947 
   43700        143.7    248.33672    160.59126    408.92798            0            0    35.088563    66.409439    146.83872   0.83470803      316.912   -1348.3125    2616.3034   -4019.2492   -8.4370396   -17.251251    25.696901    10.665516    9.5460896 
   43800        143.8    247.99654    160.47581    408.47235            0            0    34.886166    66.257107    146.85327    0.8345769    316.68417   -1362.1391    2616.7145   -4060.5213   -8.4002964   -17.495809    25.699363    10.666308    9.5459655 
   43900        143.9     247.7006     160.3194       408.02            0            0    34.713346    66.119696    146.86756   0.83444694    316.37551   -1377.5435     2617.122   -4106.5196   -8.3641784   -17.746676    25.701825    10.667109     9.545821 
   44000          144    247.45244    160.12053    407.57297            0            0    34.573589    65.997263    146.88159   0.83431836    315.98306   -1394.4983    2617.5254   -4157.1674   -8.3256328   -18.001939    25.704287    10.667917    9.5456545 
   44100        144.1    247.25501    159.87842    407.13343            0            0    34.469838    65.889835    146.89533   0.83419132    315.50528   -1412.9668     2617.924    -4212.359   -8.2816116   -18.259739    25.706749    10.668732    9.5454648 
   44200        144.2    247.11062    159.59302    406.70364            0            0    34.404426    65.797407    146.90879   0.83406597    314.94207   -1432.9021    2618.3174   -4271.9589   -8.2291292   -18.518293    25.709211    10.669552    9.5452509 
   44300        144.3     247.0209    159.26503    406.28593            0            0    34.379017    65.719945    146.92194   0.83394241    314.29481   -1454.2476    2618.7054   -4335.8016   -8.1653185   -18.775922    25.711673    10.670379    9.5450119 
   44400        144.4    246.98672    158.89592    405.88264            0            0    34.394559    65.657384    146.93477   0.83382068     313.5664   -1476.9364    2619.0877   -4403.6907   -8.0874841   -19.031069    25.714135    10.671211    9.5447468 
   44500        144.5    247.00818    158.48788    405.49606            0            0    34.451256    65.609634    146.94729   0.83370082    312.76117   -1500.8917    2619.4642   -4475.3997   -7.9931517   -19.282319    25.716597    10.672049    9.5444553 
   44600        144.6     247.0846    158.04383    405.12843            0            0    34.548554     65.57658    146.95947    0.8335828    311.88488   -1526.0269    2619.8351   -4550.6722   -7.8801143   -19.528413     25.71906    10.672894     9.544137 
   44700        144.7    247.21452    157.56736    404.78188            0            0    34.685134    65.558083    146.97131   0.83346656    310.94461    -1552.246    2620.2004   -4629.2232   -7.7464727   -19.768262    25.721522    10.673747    9.5437914 
   44800        144.8    247.39571    157.06267    404.45838            0            0    34.858932     65.55398     146.9828   0.83335201    309.94866   -1579.4438    2620.5606   -4710.7398   -7.5906709    -20.00095    25.723984     10.67461    9.5434187 
   44900        144.9    247.62519    156.53452    404.15971            0            0    35.067165    65.564091    146.99393   0.83323902    308.90641   -1607.5068     2620.916   -4794.8833   -7.4115265   -20.225745    25.726446    10.675483    9.5430189 
   45000          145     247.8993    155.98815    403.88745            0            0    35.306376    65.588217    147.00471   0.83312742    307.82818   -1636.3137     2621.267   -4881.2907   -7.2082545   -20.442095    25.728908    10.676368    9.5425921 
   45100        145.1    248.21375    155.42915     403.6429            0            0    35.572492    65.626141    147.01512   0.83301703    306.72506   -1665.7359    2621.6144   -4969.5776   -6.9804855   -20.649628     25.73137    10.677269    9.5421388 
   45200        145.2    248.56368    154.86345    403.42713            0            0    35.860888    65.677634    147.02516   0.83290763     305.6087   -1695.6387    2621.9588   -5059.3397   -6.7282769   -20.848145    25.733832    10.678186    9.5416595 
   45300        145.3    248.94376    154.29714     403.2409            0            0    36.166475    65.742452    147.03483   0.83279897    304.49114   -1725.8821    2622.3008   -5150.1567   -6.4521187   -21.037615    25.736294    10.679122    9.5411548 
   45400        145.4    249.34825    153.73641    403.08466            0            0    36.483786    65.820339    147.04413   0.83269082    303.38459   -1756.3218    2622.6415   -5241.5942   -6.1529321   -21.218155    25.738756    10.680081    9.5406252 
   45500        145.5    249.77116    153.18743    402.95858            0            0    36.807076     65.91103    147.05305    0.8325829    302.30122   -1786.8099    2622.9814   -5333.2077   -5.8320619   -21.390022    25.741218    10.681063    9.5400717 
   45600        145.6    250.20628    152.65622     402.8625            0            0    37.130427    66.014251     147.0616   0.83247493    301.25292   -1817.1968    2623.3216   -5424.5454   -5.4912626   -21.553592     25.74368    10.682072    9.5394951 
   45700        145.7    250.64736    152.14858    402.79594            0            0    37.447859    66.129719    147.06978   0.83236665    300.25115   -1847.3313    2623.6629   -5515.1517   -5.1326777    -21.70934    25.746143    10.683111    9.5388962 
   45800        145.8    251.08818    151.66997    402.75815            0            0    37.753443    66.257145    147.07759   0.83225777    299.30666   -1877.0625    2624.0061    -5604.571   -4.7588134   -21.857821    25.748605    10.684181     9.538276 
   45900        145.9    251.52268     151.2254    402.74808            0            0    38.041412    66.396232    147.08504   0.83214804    298.42934   -1906.2409    2624.3521   -5692.3505   -4.3725055    -21.99964    25.751067    10.685286    9.5376355 
   46000          146    251.94507    150.81932     402.7644            0            0    38.306275     66.54668    147.09212   0.83203719    297.62799   -1934.7189    2624.7017   -5778.0445   -3.9768805   -22.135435    25.753529    10.686427    9.5369756 
   46100        146.1    252.34995    150.45559    402.80554            0            0    38.542926    66.708181    147.09885   0.83192499    296.91019   -1962.3529    2625.0557   -5861.2174   -3.5753114   -22.265848    25.755991    10.687607    9.5362973 
   46200        146.2    252.73239    150.13733    402.86972            0            0    38.746746    66.880422    147.10523   0.83181122    296.28213   -1989.0033    2625.4148   -5941.4471   -3.1713674     -22.3915    25.758453    10.688827    9.5356016 
   46300        146.3    253.08805    149.86689    402.95494            0            0      38.9137    67.063088    147.11126   0.83169568    295.74844   -2014.5367    2625.7795   -6018.3283   -2.7687597   -22.512968    25.760915    10.690089    9.5348894 
   46400        146.4    253.41324     149.6458    403.05904            0            0    39.040422    67.255854    147.11696   0.83157821    295.31215   -2038.8258    2626.1504   -6091.4754   -2.3712822   -22.630759    25.763377    10.691393    9.5341618 
   46500        146.5    253.70503    149.47473    403.17975            0            0    39.124294    67.458392    147.12234   0.83145867    294.97455   -2061.7512     2626.528   -6160.5256   -1.9827493    -22.74529    25.765839    10.692741    9.5334195 
   46600        146.6    253.96127    149.35341    403.31469            0            0    39.163503    67.670367     147.1274   0.83133694    294.73515   -2083.2017    2626.9126   -6225.1412   -1.6069309    -22.85687    25.768301    10.694133    9.5326634 
   46700        146.7    254.18069    149.28071     403.4614            0            0    39.157095     67.89144    147.13216   0.83121297    294.59167   -2103.0751    2627.3044   -6285.0122   -1.2474863   -22.965678    25.770764    10.695569    9.5318944 
   46800        146.8    254.36289    149.25455    403.61744            0            0    39.105005    68.121262    147.13662   0.83108671    294.54005   -2121.2791    2627.7035   -6339.8577  -0.90789737   -23.071753    25.773226    10.697048    9.5311133 
   46900        146.9    254.50836    149.27201    403.78036            0            0    39.008078    68.359476     147.1408   0.83095816     294.5745   -2137.7315      2628.11   -6389.4282  -0.59140397   -23.174982    25.775688    10.698571    9.5303209 
   47000          147     254.6185    149.32929    403.94779            0            0    38.868063    68.605719    147.14472   0.83082737    294.68754   -2152.3608    2628.5237   -6433.5063  -0.30094108   -23.275095     25.77815    10.700134    9.5295178 
   47100        147.1    254.69559    149.42184    404.11743            0            0    38.687601    68.859618    147.14837   0.83069439    294.87019   -2165.1062    2628.9445   -6471.9079 -0.039081178   -23.371662    25.780612    10.701738    9.5287047 
   47200        147.2    254.74276    149.54439    404.28715            0            0    38.470189    69.120789    147.15179   0.83055934    295.11202   -2175.9181     2629.372   -6504.4821   0.19201784   -23.464096    25.783074     10.70338    9.5278823 
   47300        147.3    254.76394    149.69104    404.45498            0            0    38.220129    69.388839    147.15497   0.83042233    295.40143   -2184.7576    2629.8058   -6531.1118   0.39065713   -23.551658    25.785536    10.705058    9.5270514 
   47400        147.4    254.76377     149.8554    404.61916            0            0    37.942461    69.663363    147.15794   0.83028355    295.72577   -2191.5969    2630.2454   -6551.7128   0.55563232   -23.633471    25.787998    10.706768    9.5262124 
   47500        147.5    254.74754    150.03066    404.77819            0            0    37.642876    69.943946    147.16071   0.83014315    296.07162   -2196.4184    2630.6902   -6566.2329   0.68625906   -23.708539     25.79046    10.708507     9.525366 
   47600        147.6    254.72109    150.20975    404.93084            0            0    37.327626    70.230162     147.1633   0.83000136    296.42505   -2199.2149    2631.1396   -6574.6513   0.78238735    -23.77576    25.792922    10.710274     9.524513 
   47700        147.7     254.6907    150.38548    405.07618            0            0    37.003411    70.521571    147.16572   0.82985839    296.77183   -2199.9886    2631.5929   -6576.9761    0.8444042   -23.833957    25.795384    10.712063    9.5236539 
   47800        147.8    254.66297    150.55065    405.21362            0            0    36.677264    70.817723    147.16799   0.82971447    297.09778   -2198.7506    2632.0494   -6573.2432   0.87322457   -23.881902    25.797847    10.713871    9.5227894 
   47900        147.9    254.64469    150.69823    405.34292            0            0    36.356419    71.118156    147.17012   0.82956984    297.38902   -2195.5205    2632.5083   -6563.5134   0.87027045   -23.918349    25.800309    10.715694    9.5219202 
   48000          148    254.64271    150.82146    405.46417            0            0    36.048185      71.4224    147.17212   0.82942474    297.63221   -2190.3251    2632.9688   -6547.8706   0.83743854   -23.942062    25.802771    10.717529     9.521047 
   48100        148.1    254.66381    150.91404    405.57785            0            0    35.759809     71.72997    147.17403    0.8292794     297.8149   -2183.1978    2633.4303   -6526.4187   0.77705795   -23.951848    25.805233    10.719371    9.5201707 
   48200        148.2    254.71456     150.9702    405.68476            0            0    35.498342    72.040376    147.17584   0.82913405    297.92572    -2174.178    2633.8919   -6499.2792   0.69183853   -23.946592    25.807695    10.721217    9.5192921 
   48300        148.3    254.80121    150.98485    405.78605            0            0    35.270503    72.353117    147.17759    0.8289889    297.95463   -2163.3096    2634.3531   -6466.5884   0.58481166   -23.925286    25.810157    10.723062    9.5184119 
   48400        148.4    254.92952    150.95369    405.88321            0            0    35.082558    72.667686    147.17927   0.82884416    297.89314   -2150.6408    2634.8131   -6428.4945   0.45926508   -23.887057    25.812619    10.724904    9.5175312 
   48500        148.5    255.10469    150.87329    405.97798            0            0    34.940196    72.983572    147.18092   0.82869999    297.73448   -2136.2225    2635.2715    -6385.155   0.31867363   -23.831197    25.815081    10.726739    9.5166509 
   48600        148.6    255.33122    150.74116    406.07238            0            0    34.848421    73.300256    147.18255   0.82855656    297.47373   -2120.1083    2635.7277   -6336.7344   0.16662753   -23.757184    25.817543    10.728564     9.515772 
   48700        148.7    255.61284     150.5558    406.16864            0            0    34.811454     73.61722    147.18416   0.82841399    297.10795   -2102.3532    2636.1813   -6283.4015 0.0067602856   -23.664701    25.820005    10.730375    9.5148955 
   48800        148.8    255.95238    150.31675    406.26913            0            0    34.832646    73.933943    147.18579   0.82827238    296.63621   -2083.0128     2636.632   -6225.3274  -0.15732261   -23.553656    25.822468    10.732171    9.5140225 
   48900        148.9    256.35177     150.0246    406.37636            0            0    34.914416    74.249905    147.18744    0.8281318    296.05967   -2062.1433    2637.0796   -6162.6836  -0.32211209   -23.424188     25.82493     10.73395    9.5131542 
   49000          149    256.81192    149.68096    406.49288            0            0    35.058193     74.56459    147.18914   0.82799229    295.38153   -2039.8004    2637.5239   -6095.6403  -0.48426033    -23.27668    25.827392    10.735708    9.5122916 
   49100        149.1    257.33276    149.28848    406.62124            0            0    35.264382    74.877485    147.19089   0.82785386    294.60701   -2016.0393    2637.9649   -6024.3655  -0.64064064   -23.111762    25.829854    10.737446    9.5114358 
   49200        149.2    257.91315    148.85078    406.76392            0            0     35.53235    75.188085    147.19271    0.8277165    293.74324   -1990.9141    2638.4027   -5949.0236  -0.78840139   -22.930307    25.832316    10.739162     9.510588 
   49300        149.3    258.55094    148.37239    406.92333            0            0    35.860426     75.49589    147.19462   0.82758015    292.79919   -1964.4778    2638.8374    -5869.775  -0.92501382   -22.733433    25.834778    10.740854    9.5097493 
   49400        149.4    259.24297    147.85871    407.10168            0            0    36.245921    75.800412    147.19664   0.82744475    291.78548   -1936.7822    2639.2692   -5786.7758   -1.0483129   -22.522493     25.83724    10.742524    9.5089207 
   49500        149.5    259.98511    147.31587    407.30098            0            0    36.685164    76.101173    147.19877   0.82731019    290.71425   -1907.8778    2639.6985   -5700.1778   -1.1565311   -22.299066    25.839702    10.744171    9.5081032 
   49600        149.6     260.7723    146.75071    407.52301            0            0    37.173556    76.397709    147.20104   0.82717637    289.59895   -1877.8141    2640.1255   -5610.1289   -1.2483247   -22.064947    25.842164    10.745796    9.5072979 
   49700        149.7    261.59866    146.17057    407.76924            0            0    37.705644    76.689567    147.20345   0.82704315    288.45411   -1846.6395    2640.5508   -5516.7737   -1.3227937   -21.822125    25.844626    10.747399    9.5065055 
   49800        149.8    262.45754    145.58329    408.04082            0            0    38.275199    76.976312    147.20603   0.82691039    287.29515   -1814.4023    2640.9748   -5420.2546   -1.3794933   -21.572776    25.847089    10.748981    9.5057269 
   49900        149.9    263.34162    144.99697    408.33859            0            0    38.875323    77.257523    147.20878   0.82677791    286.13811   -1781.1501    2641.3979   -5320.7126   -1.4184391   -21.319233    25.849551    10.750543    9.5049628 
   50000          150    264.24307    144.41995    408.66301            0            0    39.498549      77.5328    147.21172   0.82664558    284.99941    -1746.931    2641.8208    -5218.289   -1.4401057   -21.063973    25.852013    10.752088    9.5042138 
WARNING: Bond/angle/dihedral extent > half of periodic box length (src/domain.cpp:933)
Loop time of 10.2864 on 1 procs for 50000 steps with 171 atoms

Performance: 0.420 ns/day, 57.146 hours/ns, 4860.804 timesteps/s
72.5% CPU use with 1 MPI tasks x 1 OpenMP threads

MPI task timing breakdown:
Section |  min time  |  avg time  |  max time  |%varavg| %total
---------------------------------------------------------------
Pair    | 0.35738    | 0.35738    | 0.35738    |   0.0 |  3.47
Bond    | 4.9308     | 4.9308     | 4.9308     |   0.0 | 47.94
Neigh   | 0          | 0          | 0          |   0.0 |  0.00
Comm    | 0.73173    | 0.73173    | 0.73173    |   0.0 |  7.11
Output  | 0.4039     | 0.4039     | 0.4039     |   0.0 |  3.93
Modify  | 3.7359     | 3.7359     | 3.7359     |   0.0 | 36.32
Other   |            | 0.1266     |            |       |  1.23

Nlocal:        171.000 ave         171 max         171 min
Histogram: 1 0 0 0 0 0 0 0 0 0
Nghost:        1151.00 ave        1151 max        1151 min
Histogram: 1 0 0 0 0 0 0 0 0 0
Neighs:        62.0000 ave          62 max          62 min
Histogram: 1 0 0 0 0 0 0 0 0 0

Total # of neighbors = 62
Ave neighs/atom = 0.3625731
Ave special neighs/atom = 11.824561
Neighbor list builds = 3
Dangerous builds = 0

write_data   sistema_tension.data
System init for write_data ...

print "All done"
All done
Total wall time: 0:00:29
