read_data	${fname}
read_data	sistema_comprimido.data
Reading data file ...
  orthogonal box = (18.412375 2.2650450 8.9123223) to (36.453950 13.693797 18.894871)
  1 by 1 by 1 MPI processor grid
  reading atoms ...
WARNING: Non-zero imageflag(s) in x direction for non-periodic boundary (src/atom.cpp:1174)
WARNING: Non-zero imageflag(s) in y direction for non-periodic boundary (src/atom.cpp:1176)
WARNING: Non-zero imageflag(s) in z direction for non-periodic boundary (src/atom.cpp:1178)
  171 atoms
  reading velocities ...
  171 velocities
  scanning bonds ...
  3 = max bonds/atom
  scanning angles ...
  6 = max angles/atom
  scanning dihedrals ...
  13 = max dihedrals/atom
  reading bonds ...
  178 bonds
  reading angles ...
  329 angles
  reading dihedrals ...
  472 dihedrals
Finding 1-2 1-3 1-4 neighbors ...
  special bond factors lj:    0.0      0.0      0.0     
  special bond factors coul:  0.0      0.0      0.0     
     4 = max # of 1-2 neighbors
     7 = max # of 1-3 neighbors
    18 = max # of 1-4 neighbors
    21 = max # of special neighbors
  special bonds CPU = 0.000 seconds
  read_data CPU = 0.013 seconds


include         "sistema.in.settings"
    pair_coeff  1 1    0.032     3.564     0.29
    pair_coeff  2 2    0.032     3.564     0.14
    pair_coeff  3 3    0.032     3.564     0.11
    pair_coeff  4 4    0.032     3.564     0.05
    pair_coeff  5 5    0.192     3.145     -0.65
    pair_coeff  6 6    0.100     2.940     0.04
    pair_coeff  7 7    0.046     0.400     0.42
    pair_coeff  8 8    0.100     2.940     -0.36
    pair_coeff  9 9    0.045     2.388     0.09
    pair_coeff  10 10  0.035     2.388     0.09
    bond_coeff 1   360.0   1.425
    bond_coeff 2   360.0   1.395
    bond_coeff 3   309.0   1.110
    bond_coeff 4   222.5   1.480
    bond_coeff 5   410.0   1.410
    bond_coeff 6      309.0   1.110
    bond_coeff 7      222.5   1.480
    bond_coeff 8      222.5   1.500
    bond_coeff 9      360.0   1.425
    bond_coeff 10      309.0   1.110
    bond_coeff 11      222.5   1.490
    bond_coeff 12      428.0   1.420
    bond_coeff 13      309.0   1.110
    bond_coeff 14      545.0   0.960
    bond_coeff 15      360.0   1.415
    bond_coeff 16      428.0   1.400
    angle_coeff 1      90.0   112.0
    angle_coeff 2      45.0   109.5
    angle_coeff 3      45.0   106.0
    angle_coeff 4      45.0   109.5
    angle_coeff 5      45.0   105.0
    angle_coeff 6      34.5   110.1
    angle_coeff 7      55.0   108.9
    angle_coeff 8      75.7   110.1
    angle_coeff 9      75.7   110.1
    angle_coeff 10      34.5   110.1
    angle_coeff 11      34.5   110.1
    angle_coeff 12      53.4   111.0
    angle_coeff 13      53.4   111.0
    angle_coeff 14      75.7   110.1
    angle_coeff 15      34.5   110.1
    angle_coeff 16      53.4   111.0
    angle_coeff 17      45.0   109.5
    angle_coeff 18      45.0   110.0
    angle_coeff 19      45.0   109.0
    angle_coeff 20      34.5   110.1
    angle_coeff 21      34.5   110.1
    angle_coeff 22      58.4   113.5
    angle_coeff 23      55.0   108.9
    angle_coeff 24      75.7   110.1
    angle_coeff 25      35.5   109.0
    angle_coeff 26      33.4   110.1
    angle_coeff 27      50.0   109.0
    angle_coeff 28      95.0   109.7
    angle_coeff 29      50.0   109.0
    angle_coeff 30      50.0   109.2
    angle_coeff 31      60.0   109.5
    angle_coeff 32      45.0   109.5
    angle_coeff 33      90.0   112.0
    angle_coeff 34      45.0   116.5
    angle_coeff 35      55.0   108.9
    angle_coeff 36      75.7   107.0
    angle_coeff 37      50.0   109.0
    dihedral_coeff 1   1    0.41   1   180
    dihedral_coeff 2   3   0.00   1   0   0.00   2   0   0.284   3   0
    dihedral_coeff 3   3   0.00   1   0   0.00   2   0   0.200   3   0
    dihedral_coeff 4   1  0.05   1   180
    dihedral_coeff 5   3   0.00   1   0   0.00   2   0   0.284   3   0
    dihedral_coeff 6   3  0.00   1   0   0.00   2   0   1.600   3   0
    dihedral_coeff 7   1    2.75   1   180
    dihedral_coeff 8   3   0.00   1   0   0.00   2   0   0.200   3   0
    dihedral_coeff 9   3   2.65   1   180   0.00   2   0   0.130   3   180
    dihedral_coeff 10  3    0.00   1   0   0.00   2   0   0.200   3   0
    dihedral_coeff 11  3    0.00   1   0   0.00   2   0   0.200   3   0
    dihedral_coeff 12  3   0.00   1   0   0.00   2   0   0.140   3   0
    dihedral_coeff 13  3   0.00   1   0   0.00   2   0   0.200   3   0
    dihedral_coeff 14  3   0.00   1   0   0.00   2   0   0.200   3   0
    dihedral_coeff 15  3   0.00   1   0   0.00   2   0   0.180   3   0
    dihedral_coeff 16  3   0.00   1   0   0.00   2   0   0.200   3   0
    dihedral_coeff 17  3   0.00   1   0   0.00   2   0   0.200   3   0
    dihedral_coeff 18  3   0.00   1   0   0.00   2   0   0.190   3   180
    dihedral_coeff 19  3   0.00   1   0   0.00   2   0   0.200   3   0
    dihedral_coeff 20  3   0.00   1   0   0.00   2   0   0.200   3   0
    dihedral_coeff 21  3   0.00   1   0   0.00   2   0   0.200   3   0
    dihedral_coeff 22  3   0.00   1   0   0.00   2   0   0.200   3   0
    dihedral_coeff 23  3   0.00   1   0   0.00   2   0   0.190   3   180
    dihedral_coeff 24  3   0.00   1   0   0.00   2   0   0.200   3   0
    dihedral_coeff 25  3   0.00   1   0   0.00   2   0   0.200   3   0
    dihedral_coeff 26  3   0.29   1   0   0.62   2   0   0.050   3   0
    dihedral_coeff 27  3   0.00   1   0   0.00   2   0   0.310   3   180
    dihedral_coeff 28  3   0.00   1   0   0.00   2   0   0.200   3   0
    dihedral_coeff 29  3   0.00   1   0   0.00   2   0   0.200   3   0
    dihedral_coeff 30  3   1.36   1   180   0.16   2   0   1.010   3   0
    dihedral_coeff 31  3   0.00   1   0   0.00   2   0   0.200   3   0
    dihedral_coeff 32  3   0.00   1   0   0.00   2   0   0.200   3   0
    dihedral_coeff 33  3   0.00   1   0   0.00   2   0   0.200   3   0
    dihedral_coeff 34  3   0.00   1   0   0.00   2   0   0.200   3   0
    dihedral_coeff 35  3   0.00   1   0   0.00   2   0   0.200   3   0
    dihedral_coeff 36  3   0.00   1   0   0.00   2   0   0.200   3   0
    dihedral_coeff 37  3   0.00   1   0   0.00   2   0   0.284   3   0
    dihedral_coeff 38  3   0.00   1   0   0.00   2   0   0.200   3   0
    dihedral_coeff 39  3   0.00   1   0   0.00   2   0   0.200   3   0
    dihedral_coeff 40  3   0.00   1   0   0.00   2   0   0.200   3   0
    dihedral_coeff 41  3   0.75   1   180   0.17   2   0   0.250   3   180
    dihedral_coeff 42  3   0.00   1   0   0.00   2   0   0.200   3   0
    dihedral_coeff 43  3   0.00   1   0   0.00   2   0   0.140   3   0
    dihedral_coeff 44  3   0.00   1   0   0.00   2   0   0.200   3   0
    dihedral_coeff 45  3   0.29   1   0   0.62   2   0   0.050   3   0
    dihedral_coeff 46  3   0.00   1   0   0.00   2   0   0.180   3   0
    dihedral_coeff 47  3   0.00   1   0   0.00   2   0   0.284   3   0
    dihedral_coeff 48  3   0.13   1   180   0.25   2   180   0.060   3   180
    dihedral_coeff 49  3   0.00   1   0   0.00   2   0   0.200   3   0
    dihedral_coeff 50  3   2.65   1   180   0.00   2   0   0.130   3   180
    dihedral_coeff 51  3   0.00   1   0   0.00   2   0   0.200   3   0
    dihedral_coeff 52  3   1.36   1   180   0.16   2   0   1.010   3   0
    dihedral_coeff 53  3   0.00   1   0   0.00   2   0   0.200   3   0
    dihedral_coeff 54  3   0.00   1   0   0.00   2   0   0.200   3   0
    dihedral_coeff 55  3   0.41   1   180   0.89   2   0   0.050   3   0
    dihedral_coeff 56  3   1.55   1   0   1.17   2   0   1.070   3   0
    dihedral_coeff 57  3   0.00   1   0   0.00   2   0   0.180   3   0
    dihedral_coeff 58  3   0.29   1   0   0.62   2   0   0.050   3   0
    dihedral_coeff 59  3   2.65   1   180   0.00   2   0   0.130   3   180
    dihedral_coeff 60  3   0.00   1   0   0.00   2   0   0.140   3   0
    dihedral_coeff 61  3   0.00   1   0   0.00   2   0   0.200   3   0
include         "sistema.in.charges"
    set type 1    charge   0.29
Setting atom values ...
  8 settings made for charge
    set type 2    charge   0.14
Setting atom values ...
  24 settings made for charge
    set type 3    charge   0.11
Setting atom values ...
  8 settings made for charge
    set type 4    charge   0.05
Setting atom values ...
  8 settings made for charge
    set type 5    charge   -0.65
Setting atom values ...
  26 settings made for charge
    set type 6    charge   0.04
Setting atom values ...
  8 settings made for charge
    set type 7    charge   0.42
Setting atom values ...
  26 settings made for charge
    set type 8    charge   -0.36
Setting atom values ...
  7 settings made for charge
    set type 9    charge   0.09
Setting atom values ...
  40 settings made for charge
    set type 10    charge   0.09
Setting atom values ...
  16 settings made for charge

comm_modify mode single cutoff 6.0 vel yes   # Quitar Warnning cutoff

compute csym all centro/atom fcc
compute peratom all pe/atom

#####################################################
# Equilibration (Langevin dynamics at 500 K)

velocity 	all create 500.0 1231
fix		1 all nve/limit 0.05
fix		2 all langevin 400.0.0 400.0.0 10.0 904297
thermo_style   custom step time pe ke etotal evdwl ecoul ebond eangle edihed density temp press vol
thermo          1000
timestep	1
run		100000
Neighbor list info ...
  update every 1 steps, delay 10 steps, check yes
  max neighbors/atom: 2000, page size: 100000
  master list distance cutoff = 2.09
  ghost atom cutoff = 6
  binsize = 1.045, bins = 18 11 10
  2 neighbor lists, perpetual/occasional/extra = 1 1 0
  (1) pair lj/cut/coul/cut, perpetual
      attributes: half, newton on
      pair build: half/bin/newton
      stencil: half/bin/3d/newton
      bin: standard
  (2) compute centro/atom, occasional
      attributes: full, newton on
      pair build: full/bin
      stencil: full/bin/3d
      bin: standard
Per MPI rank memory allocation (min/avg/max) = 14.38 | 14.38 | 14.38 Mbytes
Step Time PotEng KinEng TotEng E_vdwl E_coul E_bond E_angle E_dihed Density Temp Press Volume 
       0            0    523932.52    253.36885    524185.89            0            0     523266.7    523.50016    142.31807     1.120436          500    -13188995    1949.1069 
    1000         1000    347.12502    194.66284    541.78787            0            0    75.780315    118.80124    152.54346    1.6300683    384.14912   -9632.1476    1339.7288 
    2000         2000    359.05024    193.87595    552.92619            0            0    82.073162    121.41535    155.56173    1.5849702    382.59626    793.91013    1377.8489 
    3000         3000    338.40311    210.07673    548.47983            0            0    63.953079    116.29162    158.15841    1.4614148    414.56699    3379.9506    1494.3393 
    4000         4000    343.76075    192.31989    536.08064            0            0    72.593572    119.33112    151.83606    1.4886992    379.52551   -12046.557    1466.9515 
    5000         5000    331.86035    178.60272    510.46307            0            0    60.222432    118.82611    152.81181    1.4281517    352.45594   -4199.8292    1529.1439 
    6000         6000    342.84195    182.14759    524.98954            0            0    69.587236    124.67821     148.5765    1.3685131    359.45142     3129.439    1595.7827 
    7000         7000    348.04975    188.42918    536.47893            0            0     73.96883    123.13634    150.94458    1.2924486    371.84756    7123.3612    1689.6993 
    8000         8000    317.84892    201.87062    519.71953            0            0    72.011802       96.234    149.60311     1.369282    398.37299    3111.1159    1594.8866 
    9000         9000    311.24187     179.9025    491.14437            0            0    55.890721    103.27007    152.08108    1.4267807    355.02094    757.79584    1530.6133 
   10000        10000    334.19667    192.30595    526.50262            0            0    74.669977    109.54012    149.98658    1.4022997      379.498    3158.6345    1557.3344 
   11000        11000    364.82361    176.60619     541.4298            0            0    70.704365    140.50374    153.61551    1.3987535    348.51598    3259.4667    1561.2825 
   12000        12000    317.32926    191.49116    508.82042            0            0    62.328955     100.5454     154.4549    1.3825945     377.8901   -9652.4144      1579.53 
   13000        13000    343.29874    194.17879    537.47752            0            0    82.025811    114.04648    147.22644    1.4838154    383.19388   -7335.6506    1471.7798 
   14000        14000    314.47132    198.46779    512.93911            0            0    59.969997    112.80917    141.69215    1.3951883    391.65783   -2155.6304    1565.2722 
   15000        15000    344.12306    196.71394      540.837            0            0    69.459633    126.65125    148.01218    1.3731498    388.19676     2624.438    1590.3942 
   16000        16000    333.31387    195.13253    528.44639            0            0    68.694518    117.93866    146.68069    1.3943591    385.07599    1569.7426    1566.2031 
   17000        17000    334.32555    185.52351    519.84906            0            0    89.614024    95.363915    149.34761    1.3042643     366.1135   -2853.3067    1674.3918 
   18000        18000    350.07798    210.95885    561.03683            0            0    74.415224    125.60089    150.06186    1.4565178    416.30778     -9543.51    1499.3633 
   19000        19000    314.46043    210.99809    525.45852            0            0    75.149331    93.141686    146.16941    1.5000729    416.38521   -10915.563    1455.8289 
   20000        20000    333.45943    198.81373    532.27316            0            0     74.05977    110.50799    148.89168    1.4999436    392.34051    4798.1208    1455.9544 
   21000        21000    328.36608    186.65004    515.01611            0            0    74.888635    95.345806    158.13164    1.3379966    368.33658   -5802.5285    1632.1786 
   22000        22000    329.18362    199.13621    528.31983            0            0    73.996135    104.59583    150.59165    1.4804071     392.9769    9932.4311    1475.1682 
   23000        23000    339.93154    183.30526     523.2368            0            0    76.849787    117.43785     145.6439    1.3402978    361.73599     7513.963    1629.3763 
   24000        24000    329.36197    187.20538    516.56735            0            0    71.668726    111.13242    146.56083    1.2455336     369.4325    844.69546    1753.3445 
   25000        25000     320.1078    186.49306    506.60086            0            0    71.512388    101.59231     147.0031    1.1352882    368.02681    5813.3255    1923.6079 
   26000        26000    333.79553    187.42712    521.22265            0            0    73.386532    110.92004    149.48896    1.2011022    369.87009   -4817.9715    1818.2046 
   27000        27000    320.77895    206.36067    527.13962            0            0     73.74825    104.21438    142.81632    1.1994711     407.2337   -2377.6555    1820.6771 
   28000        28000     327.4525     197.9701     525.4226            0            0    81.184994     98.70278    147.56472    1.2900015    390.67569     10153.49    1692.9046 
   29000        29000    312.50577    189.74668    502.25245            0            0    66.929027    102.44675       143.13    1.2758323    374.44751   -287.27798    1711.7057 
   30000        30000    305.74911    190.37427    496.12338            0            0    67.291431     92.98132    145.47636      1.25265    375.68602    12175.776    1743.3835 
   31000        31000    335.03064    210.87281    545.90345            0            0    71.205692    119.20915     144.6158    1.1748118    416.13799    -2909.132     1858.893 
   32000        32000    320.67007    182.34447    503.01454            0            0    65.261176    109.06902    146.33987    1.0872263    359.83995   -5058.1825    2008.6429 
   33000        33000    336.89173    186.19477     523.0865            0            0    75.572716    110.65946    150.65955    1.0526838    367.43816    4579.7567     2074.554 
   34000        34000    319.32332    196.78482    516.10814            0            0    61.297232    114.18282    143.84327   0.97955286    388.33665    1976.5064     2229.435 
   35000        35000    322.81901    179.53583    502.35484            0            0    65.834845    101.92238    155.06179   0.91504179    354.29735   -1103.6801    2386.6117 
   36000        36000     313.2259    197.92333    511.14923            0            0    59.745184    101.14652    152.33419   0.81209506    390.58339    2334.4565     2689.155 
   37000        37000    324.40431    202.81128     527.2156            0            0    71.039239     111.2763    142.08877   0.93505014    400.22931    6095.6739    2335.5426 
   38000        38000    345.07961    193.04373    538.12334            0            0    72.488045    116.39375    156.19782   0.93296981    380.95394   -3203.8196    2340.7504 
   39000        39000    338.75398    216.69625    555.45022            0            0    77.773581    111.86362    149.11678   0.88771999       427.63   -4610.6033    2460.0656 
   40000        40000    328.90488    215.50777    544.41266            0            0     60.28275    120.33626    148.28587   0.84879557    425.28466    814.96597    2572.8804 
   41000        41000    318.02917    183.49855    501.52772            0            0    66.265821    100.82374     150.9396   0.93256858    362.11742    -3331.497    2341.7575 
   42000        42000    349.32349    182.74409    532.06758            0            0    78.305465    117.96538    153.05264   0.79452706    360.62857   -3996.1105    2748.6156 
   43000        43000    308.72159    200.24397    508.96556            0            0    69.147788    91.652625    147.92118   0.93489314    395.16296   -2296.6058    2335.9348 
   44000        44000    320.58159    185.89666    506.47825            0            0    72.573359    98.568893    149.43934   0.82115173    366.84987    3937.6225    2659.4957 
   45000        45000    325.10345    207.35943    532.46287            0            0      60.4679    119.33914    145.29641   0.82553579    409.20465   -405.56054    2645.3722 
   46000        46000    329.33748    217.56568    546.90317            0            0    73.607797    107.40426    148.32542   0.84824761    429.34576    1233.9338    2574.5424 
   47000        47000    309.95252    216.30332    526.25584            0            0    75.914139     88.40379    145.63459   0.88732222     426.8546   -3733.9902    2461.1685 
   48000        48000    325.31701    198.71893    524.03593            0            0    69.843037    107.00677     148.4672    1.0320465    392.15342   -982.57442    2116.0379 
   49000        49000    306.06636    197.98438    504.05074            0            0     65.72105    101.72447    138.62085   0.98887115    390.70386    3926.7311    2208.4267 
   50000        50000    326.08362      190.646    516.72962            0            0    65.719057    110.67572    149.68885   0.92904678    376.22224    4382.0579    2350.6346 
   51000        51000    348.08297    179.52197    527.60495            0            0    66.741498     129.7661    151.57537    1.0669359    354.27001    5759.4849    2046.8423 
   52000        52000    328.99671    206.93363    535.93034            0            0    58.752664    120.72084     149.5232   0.90994844    408.36438   -316.30107    2399.9705 
   53000        53000    299.85685      191.978    491.83485            0            0    60.502358    93.431723    145.92277   0.93321229    378.85083   -2117.6002    2340.1422 
   54000        54000    331.92781     198.8587    530.78651            0            0    70.686118    113.93655    147.30514   0.99900281    392.42925    2263.6234    2186.0294 
   55000        55000    313.37081    182.11309     495.4839            0            0    63.895853    101.85153    147.62343    1.0465513    359.38334    3077.1964    2086.7105 
   56000        56000     320.6147    200.92546    521.54016            0            0    67.574156     111.5751    141.46544   0.99804138    396.50782    6326.7054    2188.1352 
   57000        57000    331.73848    204.29494    536.03342            0            0    70.675739    113.08973    147.97301    1.1115692    403.15717    11036.231    1964.6545 
   58000        58000    346.33184    195.86447    542.19631            0            0    80.911798    116.38866    149.03138    1.1435585    386.52041   -1495.0917    1909.6963 
   59000        59000    314.95283    194.09564    509.04847            0            0    68.600779    102.97837    143.37368    1.0080632    383.02979    5835.9955    2166.3816 
   60000        60000    322.61726     174.1997    496.81696            0            0    71.485256    104.59989    146.53212    1.1107204    343.76699    2971.9103    1966.1559 
   61000        61000    335.31925    198.48474    533.80399            0            0    72.352221    113.38378    149.58325   0.91844228    391.69128   -2580.2519    2377.7754 
   62000        62000      322.169    187.43193    509.60093            0            0    66.792019    107.25701    148.11997    1.0207774    369.87958    232.30442    2139.3983 
   63000        63000    323.63798    209.72967    533.36765            0            0    74.638953    109.02527    139.97375   0.99929354    413.88211   -6133.1326    2185.3934 
   64000        64000    338.70761    172.09604    510.80365            0            0     74.67408    115.35123     148.6823   0.98193733    339.61562    2947.3956    2224.0212 
   65000        65000    311.99681    180.67925    492.67606            0            0    63.260701    102.38536    146.35076   0.95312418    356.55378   -2118.8274    2291.2539 
   66000        66000    325.34801    219.83466    545.18267            0            0    71.462159    106.77561    147.11024     1.007502    433.82337    4374.2126    2167.5882 
   67000        67000    323.72412     204.0703    527.79441            0            0    69.294948    106.84948    147.57969    1.0079713    402.71386    -3102.438     2166.579 
   68000        68000    328.28403    171.27998    499.56401            0            0    84.084585    97.448143     146.7513   0.97221916     338.0052   -5719.0417    2246.2522 
   69000        69000    327.61552     203.4126    531.02812            0            0    71.217217    112.41187    143.98643   0.92771745    401.41595   -329.33555    2354.0028 
   70000        70000    327.90506    189.42677    517.33184            0            0     72.55969     107.7315    147.61388   0.94236765    373.81622    1950.0787    2317.4071 
   71000        71000     332.5615    182.48715    515.04866            0            0    77.736769    107.19032    147.63442    0.9213152    360.12152   -5362.1487    2370.3608 
   72000        72000     327.4223    209.29906    536.72136            0            0      65.8048    114.05153    147.56597   0.86903421    413.03234    414.16817    2512.9614 
   73000        73000     336.5416    198.43999     534.9816            0            0     63.61673    118.22641    154.69847   0.93898579    391.60297    2439.3166    2325.7535 
   74000        74000    316.40603    186.67415    503.08018            0            0    54.795366     108.2619    153.34876    0.9023303    368.38417     1194.971    2420.2329 
   75000        75000    313.45509    192.74929    506.20438            0            0    65.563609    97.803989    150.08749   0.88436963     380.3729   -776.46194    2469.3854 
   76000        76000    316.33233    190.57735    506.90968            0            0     64.01374    106.91525    145.40334   0.91024542    376.08676   -270.15165    2399.1875 
   77000        77000    329.78081     200.3429    530.12371            0            0     70.92712    110.71331    148.14038   0.85590586    395.35819   -5638.5377    2551.5066 
   78000        78000    308.92628    176.74385    485.67013            0            0    65.794531    95.382106    147.74964   0.95142871    348.78764    3661.6316    2295.3369 
   79000        79000     325.0045    219.60427    544.60877            0            0    63.055974    117.55593     144.3926   0.87828971    433.36871    255.47942    2486.4796 
   80000        80000      320.094    206.32078    526.41478            0            0    75.447389    96.755926    147.89069   0.96081882    407.15497    1527.1155    2272.9045 
   81000        81000     311.7266    208.24225    519.96885            0            0    63.726231    100.80077     147.1996   0.94826457    410.94682    -807.2293    2302.9959 
   82000        82000    301.48495    173.20371    474.68866            0            0    52.142439    107.50756    141.83495   0.90714692     341.8015    3610.0194    2407.3823 
   83000        83000    312.97377    201.97177    514.94554            0            0    67.035328    100.30311    145.63534   0.79052208     398.5726   -1421.6633    2762.5408 
   84000        84000    316.99672    192.44625    509.44298            0            0    67.647313     102.9879    146.36151   0.86930971    379.77488    4749.2284     2512.165 
   85000        85000    343.46384    183.33853    526.80237            0            0    72.896433    122.18865    148.37876   0.92849256    361.80163    2519.0196    2352.0376 
   86000        86000    310.77896    213.06286    523.84182            0            0    66.005705    103.48129    141.29196   0.94035571    420.45985    2031.8256    2322.3653 
   87000        87000    325.97592    198.57635    524.55226            0            0    71.858468    108.35453    145.76292   0.87347771    391.87205   -3050.4836    2500.1777 
   88000        88000    317.86668     213.0822    530.94889            0            0     73.28031    104.14569    140.44068   0.87804826    420.49802   -1770.0868    2487.1634 
   89000        89000    312.50577    196.99744    509.50321            0            0    67.243344    96.505145    148.75728   0.95277444    388.75623    5679.1684    2292.0949 
   90000        90000    318.94575    202.92019    521.86594            0            0    82.046998    93.542491    143.35626   0.94064414    400.44422   -6433.3003    2321.6532 
   91000        91000     318.8997    193.46738    512.36708            0            0    71.583875    98.600239    148.71559    0.8714193    381.78998   -4018.3971    2506.0834 
   92000        92000    316.46262    196.37591    512.83853            0            0    67.504899     103.9387    145.01903   0.91726859     387.5297   -307.44476    2380.8179 
   93000        93000    324.14193    188.66565    512.80758            0            0    77.688907    101.88066    144.57237   0.89653661    372.31422   -1958.7734    2435.8732 
   94000        94000     325.2308    195.18325    520.41405            0            0    70.413655    114.81988    139.99727    0.9531525    385.17608    -2656.617    2291.1858 
   95000        95000    328.08266    185.62502    513.70768            0            0    64.947101    115.51475    147.62081    1.0379716    366.31381    2304.3757    2103.9588 
   96000        96000    311.44292    180.81685    492.25977            0            0    65.486022    102.41892    143.53799    1.0016604    356.82533   -1949.9485    2180.2293 
   97000        97000     320.3524    204.52957    524.88196            0            0     79.63538     97.50928    143.20774   0.96584467    403.62018   -4446.2648    2261.0773 
   98000        98000     317.9364    187.33472    505.27112            0            0    77.084779    99.495535    141.35609   0.91860929    369.68775    4586.6568    2377.3431 
   99000        99000    322.76466    208.58325    531.34791            0            0    69.430661    111.43598    141.89802    1.0089239    411.61975   -2461.6763    2164.5335 
  100000       100000    318.91528    207.58131    526.49659            0            0     79.55555    94.957748    144.40198    1.0502671    409.64251   -7813.7557    2079.3277 
Loop time of 7.1765 on 1 procs for 100000 steps with 171 atoms

Performance: 1203.929 ns/day, 0.020 hours/ns, 13934.361 timesteps/s
99.3% CPU use with 1 MPI tasks x 1 OpenMP threads

MPI task timing breakdown:
Section |  min time  |  avg time  |  max time  |%varavg| %total
---------------------------------------------------------------
Pair    | 0.11235    | 0.11235    | 0.11235    |   0.0 |  1.57
Bond    | 5.7437     | 5.7437     | 5.7437     |   0.0 | 80.03
Neigh   | 0.22287    | 0.22287    | 0.22287    |   0.0 |  3.11
Comm    | 0.015594   | 0.015594   | 0.015594   |   0.0 |  0.22
Output  | 0.0003109  | 0.0003109  | 0.0003109  |   0.0 |  0.00
Modify  | 0.87464    | 0.87464    | 0.87464    |   0.0 | 12.19
Other   |            | 0.2071     |            |       |  2.89

Nlocal:        171.000 ave         171 max         171 min
Histogram: 1 0 0 0 0 0 0 0 0 0
Nghost:        0.00000 ave           0 max           0 min
Histogram: 1 0 0 0 0 0 0 0 0 0
Neighs:        91.0000 ave          91 max          91 min
Histogram: 1 0 0 0 0 0 0 0 0 0
FullNghs:      0.00000 ave           0 max           0 min
Histogram: 1 0 0 0 0 0 0 0 0 0

Total # of neighbors = 91
Ave neighs/atom = 0.53216374
Ave special neighs/atom = 11.824561
Neighbor list builds = 1885
Dangerous builds = 0
unfix 1
unfix 2
write_restart 	restart.${simname}.dreiding1
write_restart 	restart.sistema_comprimido.dreiding1
System init for write_restart ...

#####################################################
# Define Settings
compute eng all pe/atom
compute eatoms all reduce sum c_eng

#####################################################
# Minimization

#dump 		1 all cfg 6 dump.comp_*.cfg mass type xs ys zs c_csym c_peratom fx fy fz

reset_timestep 0
fix 1 all nvt temp 300.0 300.0 100.0 #estoy colocando a temperatura ambiente
thermo 20
thermo_style  custom step time pe ke etotal evdwl ecoul ebond eangle edihed density temp press vol
min_style cg
minimize 1e-25 1e-25 500000 1000000
WARNING: Using 'neigh_modify every 1 delay 0 check yes' setting during minimization (src/min.cpp:187)
Per MPI rank memory allocation (min/avg/max) = 15.52 | 15.52 | 15.52 Mbytes
Step Time PotEng KinEng TotEng E_vdwl E_coul E_bond E_angle E_dihed Density Temp Press Volume 
       0       100000    318.91528    207.58131    526.49659            0            0     79.55555    94.957748    144.40198    1.0230732    409.64251   -7611.4394    2134.5974 
      20       100020     145.5961    207.58131    353.17741            0            0   0.54139015    7.5941206    137.46059    1.0230732    409.64251    4199.9874    2134.5974 
      40       100040    139.62603    207.58131    347.20734            0            0   0.29725804    5.6274469    133.70133    1.0230732    409.64251    4239.6937    2134.5974 
      60       100060     136.5335    207.58131    344.11481            0            0   0.19840023    4.5901582    131.74494      1.00309    409.64251    4368.9083    2177.1221 
      80       100080    135.07853    207.58131    342.65984            0            0   0.17480474    4.4350767    130.46865      1.00309    409.64251    4224.5199    2177.1221 
     100       100100     134.2594    207.58131    341.84071            0            0    0.1807929    4.3154193    129.76319      1.00309    409.64251    4325.6743    2177.1221 
     120       100120    133.33252    207.58131    340.91383            0            0   0.17655094    4.1605121    128.99546      1.00309    409.64251    4371.4812    2177.1221 
     140       100140    132.91721    207.58131    340.49852            0            0   0.17573276    4.2029422    128.53854      1.00309    409.64251       4446.7    2177.1221 
     160       100160    132.46966    207.58131    340.05097            0            0   0.15775045    4.2066868    128.10523     1.005016    409.64251    4391.1429      2172.95 
     180       100180    132.28382    207.58131    339.86513            0            0   0.15314269    4.1659009    127.96478     1.005016    409.64251    4379.1595      2172.95 
     200       100200    132.02775    207.58131    339.60906            0            0   0.15913826    4.1170941    127.75152     1.005016    409.64251    4409.7691      2172.95 
     220       100220    131.64006    207.58131    339.22137            0            0   0.15840315    4.0459449    127.43572     1.005016    409.64251    4349.8931      2172.95 
     240       100240    131.38511    207.58131    338.96642            0            0    0.1499988    4.0540006    127.18112     1.005016    409.64251    4416.0732      2172.95 
     260       100260    131.28097    207.58131    338.86228            0            0   0.14743124    4.1036341    127.02991   0.98685626    409.64251    4337.6952    2212.9357 
     280       100280    131.16471    207.58131    338.74602            0            0   0.15041866    4.1092919      126.905   0.98685626    409.64251     4317.838    2212.9357 
     300       100300    130.95264    207.58131    338.53394            0            0   0.16349523    4.1361087    126.65303   0.98685626    409.64251    4380.1435    2212.9357 
     320       100320     130.6758    207.58131     338.2571            0            0   0.16031374    4.1934652    126.32202   0.98685626    409.64251    4315.0391    2212.9357 
     340       100340    130.39714    207.58131    337.97845            0            0   0.15329331    4.2307798    126.01307   0.94451507    409.64251    4147.0455    2312.1383 
     360       100360    130.21701    207.58131    337.79832            0            0   0.14890718    4.2627623    125.80534   0.94451507    409.64251     4196.214    2312.1383 
     380       100380    129.98359    207.58131     337.5649            0            0   0.13685847    4.2880832    125.55865   0.94451507    409.64251    4124.1577    2312.1383 
     400       100400    129.74799    207.58131    337.32929            0            0   0.15319354    4.2664103    125.32838   0.91192105    409.64251    3973.3463    2394.7791 
     420       100420    129.51658    207.58131    337.09789            0            0   0.15895998    4.2111952    125.14642   0.91192105    409.64251    3976.3903    2394.7791 
     440       100440    129.31272    207.58131    336.89402            0            0   0.14951392    4.0914723    125.07173   0.88909553    409.64251    3891.5483    2456.2596 
     460       100460    129.16273    207.58131    336.74404            0            0   0.15051333    4.0337046    124.97851   0.88909553    409.64251    3884.7255    2456.2596 
     480       100480    129.05031    207.58131    336.63161            0            0   0.15489849     3.986699    124.90871   0.88909553    409.64251     3905.906    2456.2596 
     500       100500    128.97726    207.58131    336.55857            0            0   0.14943143    3.9962974    124.83153   0.88909553    409.64251    3888.1046    2456.2596 
     520       100520     128.9181    207.58131     336.4994            0            0   0.14700525    3.9688607    124.80223   0.88909553    409.64251    3891.3355    2456.2596 
     540       100540    128.88038    207.58131    336.46168            0            0   0.15030476    3.9556308    124.77444   0.88909553    409.64251    3839.4992    2456.2596 
     560       100560    128.82382    207.58131    336.40513            0            0   0.14855323     3.941817    124.73345   0.88909553    409.64251     3842.876    2456.2596 
     580       100580    128.74413    207.58131    336.32543            0            0   0.14847704    3.9154086    124.68024   0.88909553    409.64251    3875.5797    2456.2596 
     600       100600    128.66218    207.58131    336.24349            0            0   0.14536911    3.9150147     124.6018   0.88909553    409.64251    3846.3221    2456.2596 
     620       100620    128.61521    207.58131    336.19652            0            0   0.14608527    3.9089987    124.56013   0.88909553    409.64251    3843.3222    2456.2596 
     640       100640    128.57326    207.58131    336.15456            0            0   0.14358699    3.9246431    124.50502   0.88909553    409.64251    3856.0122    2456.2596 
     660       100660    128.54714    207.58131    336.12845            0            0   0.14866851    3.9146288    124.48384   0.88909553    409.64251    3884.0117    2456.2596 
     680       100680    128.53074    207.58131    336.11205            0            0   0.14506017    3.9169496    124.46873   0.88909553    409.64251     3861.739    2456.2596 
     700       100700    128.51656    207.58131    336.09787            0            0   0.14713594    3.9245416    124.44488   0.88909553    409.64251    3897.1548    2456.2596 
     720       100720    128.50337    207.58131    336.08467            0            0   0.14807852    3.9362056    124.41908   0.88909553    409.64251    3885.5766    2456.2596 
     740       100740    128.49118    207.58131    336.07248            0            0   0.14451199    3.9526591      124.394   0.88909553    409.64251    3882.5372    2456.2596 
     760       100760    128.47539    207.58131    336.05669            0            0   0.14781462    3.9627194    124.36485   0.88909553    409.64251     3878.071    2456.2596 
     780       100780    128.45271    207.58131    336.03402            0            0   0.15192406    4.0065234    124.29427   0.86912339    409.64251    3775.6208    2512.7036 
     800       100800    128.42604    207.58131    336.00735            0            0   0.15159609    4.0357622    124.23868   0.86912339    409.64251    3778.3854    2512.7036 
     820       100820    128.39769    207.58131      335.979            0            0    0.1543957    4.0487305    124.19456   0.86912339    409.64251    3779.9511    2512.7036 
     840       100840    128.37122    207.58131    335.95253            0            0   0.15633056    4.0475423    124.16735   0.86912339    409.64251    3768.3312    2512.7036 
     860       100860    128.34447    207.58131    335.92578            0            0   0.15837819    4.0559303    124.13016   0.86912339    409.64251    3760.4414    2512.7036 
     880       100880    128.32142    207.58131    335.90272            0            0   0.15811115    4.0420579    124.12125   0.86912339    409.64251    3770.8614    2512.7036 
     900       100900    128.29682    207.58131    335.87813            0            0   0.16028412    4.0364328     124.1001   0.86912339    409.64251    3765.5903    2512.7036 
     920       100920    128.25987    207.58131    335.84118            0            0   0.15784372    4.0246809    124.07734   0.86912339    409.64251    3782.3963    2512.7036 
     940       100940    128.22578    207.58131    335.80708            0            0   0.15665712    4.0120538    124.05707   0.87609208    409.64251    3799.9527    2492.7168 
     960       100960    128.20547    207.58131    335.78678            0            0   0.15329427     3.990581     124.0616   0.87609208    409.64251    3804.7136    2492.7168 
     980       100980    128.18724    207.58131    335.76855            0            0   0.15501433    3.9990749    124.03315   0.87609208    409.64251    3820.7957    2492.7168 
    1000       101000     128.1733    207.58131    335.75461            0            0   0.15578063    4.0092618    124.00826   0.87609208    409.64251     3811.322    2492.7168 
    1020       101020    128.15877    207.58131    335.74007            0            0   0.15626023     4.001827    124.00068   0.87609208    409.64251    3817.6877    2492.7168 
    1040       101040     128.1522    207.58131    335.73351            0            0    0.1556088    4.0033131    123.99328   0.87609208    409.64251    3796.2516    2492.7168 
    1060       101060     128.1445    207.58131     335.7258            0            0   0.15196432    3.9876915    124.00484   0.87609208    409.64251    3815.8955    2492.7168 
    1080       101080    128.13483    207.58131    335.71613            0            0   0.15112506    3.9924721    123.99123   0.87609208    409.64251    3812.2636    2492.7168 
    1100       101100    128.11955    207.58131    335.70086            0            0   0.15166058    3.9598807    124.00801   0.87609208    409.64251    3812.2295    2492.7168 
    1120       101120    128.09494    207.58131    335.67625            0            0   0.14871473    3.9688478    123.97738   0.87609208    409.64251    3810.8047    2492.7168 
    1140       101140    128.07632    207.58131    335.65763            0            0    0.1512478    3.9498128    123.97526   0.87609208    409.64251    3810.9651    2492.7168 
    1160       101160    128.05893    207.58131    335.64024            0            0   0.14805243    3.9573297    123.95355   0.87609208    409.64251    3819.4309    2492.7168 
    1180       101180    128.04752    207.58131    335.62883            0            0   0.15206028    3.9570182    123.93845   0.87609208    409.64251    3809.1228    2492.7168 
    1200       101200    128.03883    207.58131    335.62013            0            0   0.14974812     3.967038    123.92204   0.87609208    409.64251    3810.3162    2492.7168 
    1220       101220    128.03226    207.58131    335.61357            0            0   0.15088152    3.9605788     123.9208   0.87609208    409.64251    3804.1208    2492.7168 
    1240       101240    128.02532    207.58131    335.60662            0            0   0.14961011    3.9731981    123.90251   0.87609208    409.64251    3813.9582    2492.7168 
    1260       101260      128.016    207.58131    335.59731            0            0   0.15168843    3.9708649    123.89345   0.82999303    409.64251    3614.4798     2631.166 
    1280       101280    128.00303    207.58131    335.58434            0            0   0.15104381    3.9858788    123.86611   0.82999303    409.64251    3611.6316     2631.166 
    1300       101300    127.99237    207.58131    335.57368            0            0   0.15009432    3.9768024    123.86547   0.82999303    409.64251    3618.5853     2631.166 
    1320       101320    127.98066    207.58131    335.56196            0            0   0.15136737     3.984182    123.84511   0.82999303    409.64251    3609.4859     2631.166 
    1340       101340    127.96979    207.58131    335.55109            0            0    0.1511027    3.9807439    123.83794   0.82999303    409.64251    3604.5607     2631.166 
    1360       101360    127.96234    207.58131    335.54364            0            0    0.1512665    3.9868541    123.82421   0.82999303    409.64251    3614.5666     2631.166 
    1380       101380    127.95583    207.58131    335.53714            0            0   0.15077911    3.9898732    123.81518   0.82999303    409.64251    3606.0749     2631.166 
    1400       101400    127.95158    207.58131    335.53289            0            0   0.15085019    3.9908692    123.80986   0.82999303    409.64251    3609.4931     2631.166 
    1420       101420    127.94715    207.58131    335.52846            0            0   0.14971735    3.9742753    123.82316   0.82999303    409.64251    3613.8848     2631.166 
    1440       101440    127.94233    207.58131    335.52363            0            0   0.14876107    3.9748476    123.81872   0.82999303    409.64251    3616.2808     2631.166 
    1460       101460    127.93172    207.58131    335.51302            0            0   0.15031569    3.9782729    123.80313   0.82999303    409.64251    3615.0714     2631.166 
    1480       101480    127.91562    207.58131    335.49693            0            0   0.15051432    3.9622673    123.80284   0.81070065    409.64251    3480.4953    2693.7803 
    1500       101500    127.90189    207.58131     335.4832            0            0   0.14931296    3.9285241    123.82405   0.81070065    409.64251    3522.7405    2693.7803 
    1520       101520    127.89388    207.58131    335.47519            0            0   0.14726058    3.9346575    123.81196   0.81070065    409.64251    3521.2099    2693.7803 
    1540       101540    127.88859    207.58131     335.4699            0            0   0.14786413    3.9449971    123.79573   0.81070065    409.64251    3534.1587    2693.7803 
    1560       101560    127.88703    207.58131    335.46833            0            0   0.14692344    3.9375138    123.80259   0.81070065    409.64251    3521.9884    2693.7803 
    1580       101580    127.88455    207.58131    335.46585            0            0   0.14737897     3.924201    123.81297   0.81070065    409.64251    3528.8453    2693.7803 
    1600       101600    127.87956    207.58131    335.46086            0            0     0.147128    3.9508565    123.78157   0.81070065    409.64251    3530.3295    2693.7803 
    1620       101620    127.87455    207.58131    335.45586            0            0   0.14673968    3.9546846    123.77313   0.81070065    409.64251    3529.2804    2693.7803 
    1640       101640    127.87013    207.58131    335.45143            0            0   0.14776914    3.9565462    123.76581   0.81070065    409.64251    3529.7429    2693.7803 
    1660       101660    127.86746    207.58131    335.44877            0            0   0.14729661    3.9470561    123.77311   0.81070065    409.64251    3529.9243    2693.7803 
    1680       101680    127.86537    207.58131    335.44668            0            0   0.14717737    3.9531708    123.76502   0.81070065    409.64251    3533.7632    2693.7803 
    1700       101700    127.86353    207.58131    335.44484            0            0   0.14796348    3.9451814    123.77039   0.81070065    409.64251    3522.4468    2693.7803 
    1720       101720    127.86147    207.58131    335.44277            0            0   0.14787221     3.941523    123.77207   0.81070065    409.64251    3522.4805    2693.7803 
    1740       101740    127.85923    207.58131    335.44053            0            0   0.14708657    3.9365299    123.77561   0.81070065    409.64251     3521.701    2693.7803 
    1760       101760    127.85648    207.58131    335.43779            0            0   0.14630729    3.9339968    123.77617   0.81070065    409.64251    3517.3763    2693.7803 
    1780       101780    127.85363    207.58131    335.43493            0            0   0.14773012    3.9253402    123.78056   0.81070065    409.64251     3523.209    2693.7803 
    1800       101800    127.85097    207.58131    335.43227            0            0   0.14744527    3.9375372    123.76598   0.81070065    409.64251    3527.0579    2693.7803 
    1820       101820    127.84766    207.58131    335.42897            0            0   0.14702815    3.9375385     123.7631   0.81070065    409.64251    3524.5155    2693.7803 
    1840       101840     127.8441    207.58131     335.4254            0            0   0.14699327    3.9355772    123.76153   0.81070065    409.64251    3527.3263    2693.7803 
    1860       101860    127.84113    207.58131    335.42243            0            0    0.1487908    3.9299212    123.76241   0.81070065    409.64251    3528.1047    2693.7803 
    1880       101880    127.83819    207.58131     335.4195            0            0   0.14833893    3.9344492     123.7554   0.81070065    409.64251    3522.8583    2693.7803 
    1900       101900    127.83579    207.58131    335.41709            0            0   0.14904647    3.9312868    123.75545   0.81070065    409.64251    3518.3268    2693.7803 
    1920       101920    127.83324    207.58131    335.41455            0            0   0.14759722    3.9266428      123.759   0.81070065    409.64251    3528.6432    2693.7803 
    1940       101940    127.83087    207.58131    335.41217            0            0   0.14726335    3.9215183    123.76209   0.81070065    409.64251    3527.0574    2693.7803 
    1960       101960     127.8287    207.58131    335.41001            0            0   0.14682956    3.9203912    123.76148   0.81070065    409.64251    3523.3852    2693.7803 
    1980       101980    127.82704    207.58131    335.40834            0            0   0.14711384    3.9166606    123.76326   0.81070065    409.64251    3528.1946    2693.7803 
    2000       102000     127.8253    207.58131     335.4066            0            0   0.14532629    3.9122113    123.76776   0.81070065    409.64251     3527.417    2693.7803 
    2020       102020    127.82367    207.58131    335.40497            0            0   0.14562672    3.9076216    123.77042   0.81070065    409.64251    3521.5433    2693.7803 
    2040       102040    127.82218    207.58131    335.40348            0            0   0.14648944    3.9089474    123.76674   0.81070065    409.64251    3523.6867    2693.7803 
    2060       102060     127.8212    207.58131    335.40251            0            0   0.14651633    3.9062235    123.76846   0.81070065    409.64251    3524.3834    2693.7803 
    2080       102080    127.82055    207.58131    335.40185            0            0   0.14594302    3.9036415    123.77096   0.81070065    409.64251    3522.6511    2693.7803 
    2100       102100    127.81977    207.58131    335.40108            0            0   0.14491961    3.9009432    123.77391   0.81070065    409.64251    3520.6904    2693.7803 
    2120       102120    127.81887    207.58131    335.40018            0            0   0.14731207    3.9077388    123.76382   0.81070065    409.64251    3527.5517    2693.7803 
    2140       102140    127.81775    207.58131    335.39905            0            0   0.14717752    3.9162853    123.75428   0.81070065    409.64251    3524.6082    2693.7803 
    2160       102160    127.81662    207.58131    335.39793            0            0   0.14781993    3.9175546    123.75125   0.81070065    409.64251    3522.3842    2693.7803 
    2180       102180     127.8156    207.58131     335.3969            0            0   0.14742183    3.9213691    123.74681   0.81070065    409.64251    3522.9629    2693.7803 
    2200       102200    127.81428    207.58131    335.39559            0            0   0.14815892     3.923705    123.74242   0.81070065    409.64251    3520.8776    2693.7803 
    2220       102220    127.81317    207.58131    335.39447            0            0   0.14803518    3.9250719    123.74006   0.81070065    409.64251    3527.4764    2693.7803 
    2240       102240    127.81167    207.58131    335.39297            0            0   0.14719888    3.9170732    123.74739   0.81070065    409.64251    3524.5529    2693.7803 
    2260       102260     127.8104    207.58131    335.39171            0            0   0.14639997    3.9135381    123.75047   0.81070065    409.64251    3522.5365    2693.7803 
    2280       102280     127.8092    207.58131    335.39051            0            0   0.14640018    3.9154265    123.74737   0.81070065    409.64251    3522.1394    2693.7803 
    2300       102300    127.80816    207.58131    335.38947            0            0   0.14669994    3.9138381    123.74762   0.81070065    409.64251    3522.7568    2693.7803 
    2320       102320    127.80745    207.58131    335.38875            0            0   0.14616654    3.9084721    123.75281   0.81070065    409.64251     3524.285    2693.7803 
    2340       102340    127.80666    207.58131    335.38797            0            0   0.14538418     3.909097    123.75218   0.81070065    409.64251    3518.8936    2693.7803 
    2360       102360      127.806    207.58131     335.3873            0            0   0.14564925    3.9135195    123.74683   0.81070065    409.64251    3524.5997    2693.7803 
    2380       102380    127.80551    207.58131    335.38682            0            0   0.14593753    3.9132123    123.74636   0.81070065    409.64251    3525.3831    2693.7803 
    2400       102400    127.80485    207.58131    335.38616            0            0   0.14567092    3.9146002    123.74458   0.81070065    409.64251    3524.7102    2693.7803 
    2420       102420    127.80423    207.58131    335.38554            0            0   0.14532623    3.9188296    123.74007   0.81070065    409.64251    3529.8447    2693.7803 
    2440       102440    127.80358    207.58131    335.38489            0            0   0.14445491    3.9129043    123.74622   0.81070065    409.64251    3529.1858    2693.7803 
    2460       102460    127.80289    207.58131     335.3842            0            0   0.14498507    3.9146208    123.74329   0.81070065    409.64251    3525.4239    2693.7803 
    2480       102480     127.8021    207.58131    335.38341            0            0   0.14592657    3.9146588    123.74152   0.79397742    409.64251    3455.6238    2750.5184 
    2500       102500    127.80114    207.58131    335.38244            0            0   0.14483242    3.9123289    123.74398   0.79397742    409.64251    3453.4801    2750.5184 
    2520       102520    127.80028    207.58131    335.38159            0            0   0.14511447    3.9025389    123.75263   0.79397742    409.64251    3452.2104    2750.5184 
    2540       102540    127.79986    207.58131    335.38117            0            0   0.14542044    3.9084039    123.74604   0.79397742    409.64251    3452.7977    2750.5184 
    2560       102560    127.79925    207.58131    335.38055            0            0   0.14615104    3.9097442    123.74335   0.79397742    409.64251    3451.7745    2750.5184 
    2580       102580    127.79885    207.58131    335.38016            0            0   0.14551001    3.9094583    123.74388   0.79397742    409.64251     3450.466    2750.5184 
    2600       102600    127.79864    207.58131    335.37995            0            0   0.14533468    3.9056684    123.74764   0.79397742    409.64251    3450.4465    2750.5184 
    2620       102620    127.79837    207.58131    335.37968            0            0   0.14552228     3.906274    123.74658   0.79397742    409.64251    3451.7032    2750.5184 
    2640       102640    127.79791    207.58131    335.37922            0            0   0.14546603    3.9099188    123.74252   0.79397742    409.64251     3453.879    2750.5184 
    2660       102660     127.7975    207.58131     335.3788            0            0   0.14518995    3.9100448    123.74226   0.79397742    409.64251    3453.4904    2750.5184 
    2680       102680    127.79723    207.58131    335.37853            0            0   0.14503119    3.9086685    123.74353   0.79397742    409.64251    3452.2564    2750.5184 
    2700       102700     127.7969    207.58131    335.37821            0            0   0.14545909    3.9098207    123.74162   0.79397742    409.64251    3456.0653    2750.5184 
    2720       102720    127.79661    207.58131    335.37791            0            0     0.145441    3.9112133    123.73995   0.79397742    409.64251    3453.1977    2750.5184 
    2740       102740    127.79635    207.58131    335.37765            0            0   0.14543368    3.9102079     123.7407   0.79397742    409.64251    3453.6391    2750.5184 
    2760       102760    127.79606    207.58131    335.37737            0            0   0.14493137    3.9083696    123.74276   0.79397742    409.64251    3451.2456    2750.5184 
    2780       102780    127.79582    207.58131    335.37713            0            0   0.14501981    3.9043059    123.74649   0.79397742    409.64251     3450.581    2750.5184 
    2800       102800    127.79545    207.58131    335.37676            0            0   0.14561484    3.9020416     123.7478   0.79397742    409.64251    3453.7804    2750.5184 
    2820       102820    127.79511    207.58131    335.37642            0            0   0.14542439    3.9027103    123.74698   0.79397742    409.64251    3448.6788    2750.5184 
    2840       102840    127.79473    207.58131    335.37604            0            0    0.1453605    3.9017926    123.74758   0.79397742    409.64251    3452.4027    2750.5184 
    2860       102860    127.79432    207.58131    335.37563            0            0   0.14527341    3.9040141    123.74504   0.79397742    409.64251    3451.8866    2750.5184 
    2880       102880    127.79385    207.58131    335.37516            0            0   0.14554944    3.9000424    123.74826   0.79397742    409.64251    3453.0373    2750.5184 
    2900       102900    127.79338    207.58131    335.37468            0            0   0.14557789    3.9047313    123.74307   0.79397742    409.64251    3450.1781    2750.5184 
    2920       102920    127.79298    207.58131    335.37429            0            0   0.14599629    3.9036261    123.74336   0.79397742    409.64251    3451.4225    2750.5184 
    2940       102940    127.79268    207.58131    335.37399            0            0   0.14569219    3.9052875     123.7417   0.79397742    409.64251    3451.4527    2750.5184 
    2960       102960    127.79236    207.58131    335.37367            0            0   0.14540213    3.9022089    123.74475   0.79397742    409.64251    3449.9246    2750.5184 
    2980       102980    127.79208    207.58131    335.37339            0            0   0.14573624    3.9019875    123.74436   0.79397742    409.64251    3449.1767    2750.5184 
    3000       103000    127.79183    207.58131    335.37313            0            0   0.14571506    3.8994505    123.74666   0.79397742    409.64251    3448.1294    2750.5184 
    3020       103020    127.79161    207.58131    335.37292            0            0   0.14489021    3.8956768    123.75105   0.79397742    409.64251    3450.2912    2750.5184 
    3040       103040     127.7914    207.58131    335.37271            0            0   0.14478067    3.8932972    123.75332   0.79397742    409.64251    3449.1134    2750.5184 
    3060       103060    127.79122    207.58131    335.37253            0            0   0.14468549    3.8934962    123.75304   0.79397742    409.64251    3450.8088    2750.5184 
    3080       103080    127.79108    207.58131    335.37239            0            0   0.14500222    3.8946071    123.75147   0.79397742    409.64251    3449.8049    2750.5184 
    3100       103100    127.79102    207.58131    335.37232            0            0   0.14475842    3.8938155    123.75244   0.79397742    409.64251    3451.0401    2750.5184 
    3120       103120     127.7909    207.58131    335.37221            0            0   0.14486703    3.8922902    123.75375   0.79397742    409.64251    3448.3815    2750.5184 
    3140       103140    127.79075    207.58131    335.37206            0            0   0.14539838    3.8948924    123.75046   0.79397742    409.64251    3451.1399    2750.5184 
    3160       103160     127.7906    207.58131     335.3719            0            0   0.14545672    3.9005498    123.74459   0.79397742    409.64251    3449.9745    2750.5184 
    3180       103180     127.7904    207.58131    335.37171            0            0   0.14590549    3.9022385    123.74226   0.79397742    409.64251     3448.937    2750.5184 
    3200       103200    127.79022    207.58131    335.37153            0            0   0.14532151    3.8996028     123.7453   0.79397742    409.64251    3450.8566    2750.5184 
    3220       103220    127.79006    207.58131    335.37137            0            0   0.14523267     3.900765    123.74407   0.79397742    409.64251    3449.4164    2750.5184 
    3240       103240     127.7899    207.58131    335.37121            0            0   0.14557009    3.9014239    123.74291   0.79397742    409.64251    3451.3088    2750.5184 
    3260       103260    127.78974    207.58131    335.37104            0            0   0.14515401    3.9009749    123.74361   0.79397742    409.64251    3449.7062    2750.5184 
    3280       103280    127.78954    207.58131    335.37084            0            0   0.14510202     3.899744    123.74469   0.79397742    409.64251    3449.4417    2750.5184 
    3300       103300    127.78938    207.58131    335.37069            0            0   0.14478005     3.899036    123.74557   0.79397742    409.64251    3452.2962    2750.5184 
    3320       103320    127.78923    207.58131    335.37054            0            0   0.14487616    3.8975121    123.74685   0.79397742    409.64251    3450.7097    2750.5184 
    3340       103340    127.78913    207.58131    335.37044            0            0   0.14501129    3.8974064    123.74671   0.79397742    409.64251    3449.7952    2750.5184 
    3360       103360    127.78902    207.58131    335.37033            0            0   0.14470232    3.8969411    123.74738   0.79397742    409.64251    3449.5911    2750.5184 
    3380       103380    127.78894    207.58131    335.37025            0            0   0.14463824     3.897063    123.74724   0.79397742    409.64251    3451.7668    2750.5184 
    3400       103400    127.78887    207.58131    335.37018            0            0    0.1447392    3.8982617    123.74587   0.79397742    409.64251    3451.5611    2750.5184 
    3420       103420    127.78879    207.58131     335.3701            0            0   0.14478619    3.8994059     123.7446   0.79397742    409.64251     3451.055    2750.5184 
    3440       103440     127.7887    207.58131    335.37001            0            0   0.14481709    3.8995537    123.74433   0.79397742    409.64251    3452.1514    2750.5184 
    3460       103460    127.78862    207.58131    335.36993            0            0   0.14460913    3.8991344    123.74488   0.79397742    409.64251    3453.3631    2750.5184 
    3480       103480    127.78853    207.58131    335.36984            0            0   0.14469091    3.8981742    123.74567   0.79397742    409.64251    3451.9537    2750.5184 
    3500       103500    127.78845    207.58131    335.36976            0            0   0.14459331     3.898679    123.74518   0.79397742    409.64251      3451.74    2750.5184 
    3520       103520    127.78834    207.58131    335.36965            0            0   0.14482176    3.8967746    123.74674   0.79397742    409.64251    3450.3597    2750.5184 
    3540       103540    127.78823    207.58131    335.36953            0            0   0.14477616    3.8952752    123.74817   0.79397742    409.64251    3449.8779    2750.5184 
    3560       103560    127.78815    207.58131    335.36945            0            0   0.14475382    3.8968532    123.74654   0.79397742    409.64251    3449.0102    2750.5184 
    3580       103580    127.78807    207.58131    335.36937            0            0   0.14491333    3.8969882    123.74617   0.79397742    409.64251    3451.1482    2750.5184 
    3600       103600    127.78797    207.58131    335.36928            0            0   0.14494359    3.8974103    123.74562   0.79397742    409.64251    3450.3652    2750.5184 
    3620       103620    127.78793    207.58131    335.36923            0            0    0.1447262    3.8964807    123.74672   0.79397742    409.64251    3449.5623    2750.5184 
    3640       103640    127.78788    207.58131    335.36919            0            0   0.14462353    3.8949152    123.74834   0.79397742    409.64251     3449.643    2750.5184 
    3660       103660    127.78782    207.58131    335.36913            0            0   0.14481233    3.8963726    123.74664   0.79397742    409.64251    3450.7257    2750.5184 
    3680       103680    127.78776    207.58131    335.36907            0            0    0.1445533    3.8981836    123.74502   0.79397742    409.64251    3451.0402    2750.5184 
    3700       103700    127.78771    207.58131    335.36902            0            0   0.14458998    3.8968445    123.74628   0.79397742    409.64251      3450.68    2750.5184 
    3720       103720    127.78767    207.58131    335.36898            0            0   0.14465889     3.897636    123.74537   0.79397742    409.64251    3452.8916    2750.5184 
    3740       103740    127.78763    207.58131    335.36893            0            0   0.14460713    3.8982275    123.74479   0.79397742    409.64251    3450.7406    2750.5184 
    3760       103760    127.78759    207.58131    335.36889            0            0   0.14460449    3.8983858     123.7446   0.79397742    409.64251    3451.1906    2750.5184 
    3780       103780    127.78755    207.58131    335.36885            0            0   0.14460951    3.8976828    123.74525   0.79397742    409.64251    3450.8974    2750.5184 
    3800       103800    127.78751    207.58131    335.36881            0            0   0.14455548    3.8959862    123.74697   0.79397742    409.64251    3451.3219    2750.5184 
    3820       103820    127.78746    207.58131    335.36876            0            0   0.14473456    3.8949159    123.74781   0.79397742    409.64251     3450.017    2750.5184 
    3840       103840    127.78739    207.58131     335.3687            0            0   0.14474301    3.8955987    123.74705   0.79397742    409.64251    3450.7207    2750.5184 
    3860       103860    127.78733    207.58131    335.36864            0            0   0.14460737    3.8951037    123.74762   0.79397742    409.64251    3450.2311    2750.5184 
    3880       103880    127.78725    207.58131    335.36856            0            0    0.1448104     3.895589    123.74686   0.79397742    409.64251    3450.9935    2750.5184 
    3900       103900    127.78717    207.58131    335.36848            0            0   0.14502405    3.8947528    123.74739   0.79397742    409.64251     3449.661    2750.5184 
    3920       103920    127.78706    207.58131    335.36837            0            0   0.14514369     3.895762    123.74616   0.79397742    409.64251    3449.5558    2750.5184 
    3940       103940    127.78696    207.58131    335.36826            0            0    0.1451054     3.896141    123.74571   0.79397742    409.64251    3450.2583    2750.5184 
    3960       103960    127.78687    207.58131    335.36818            0            0   0.14495207    3.8957283    123.74619   0.79397742    409.64251    3450.3099    2750.5184 
    3980       103980    127.78679    207.58131    335.36809            0            0   0.14489728    3.8954786    123.74641   0.79397742    409.64251    3450.9496    2750.5184 
    4000       104000    127.78671    207.58131    335.36802            0            0   0.14513047    3.8954383    123.74614   0.79397742    409.64251    3450.4016    2750.5184 
    4020       104020    127.78664    207.58131    335.36794            0            0   0.14491183     3.893926     123.7478   0.79397742    409.64251    3449.2123    2750.5184 
    4040       104040    127.78658    207.58131    335.36789            0            0   0.14477559    3.8920987    123.74971   0.79397742    409.64251    3450.7604    2750.5184 
    4060       104060    127.78652    207.58131    335.36783            0            0   0.14448857    3.8905798    123.75145   0.79397742    409.64251    3449.5596    2750.5184 
    4080       104080    127.78648    207.58131    335.36779            0            0   0.14453523     3.891484    123.75046   0.79397742    409.64251    3449.8029    2750.5184 
    4100       104100    127.78646    207.58131    335.36776            0            0   0.14462458     3.891547    123.75028   0.79397742    409.64251    3450.2008    2750.5184 
    4120       104120    127.78644    207.58131    335.36775            0            0   0.14442907    3.8910413    123.75097   0.79397742    409.64251    3450.1892    2750.5184 
    4140       104140    127.78642    207.58131    335.36773            0            0   0.14454254    3.8901799     123.7517   0.79397742    409.64251    3449.8153    2750.5184 
    4160       104160    127.78639    207.58131     335.3677            0            0   0.14456731    3.8910814    123.75074   0.79397742    409.64251    3450.2662    2750.5184 
    4180       104180    127.78636    207.58131    335.36767            0            0   0.14473142    3.8927854    123.74884   0.79397742    409.64251     3450.347    2750.5184 
    4200       104200    127.78632    207.58131    335.36762            0            0   0.14493019    3.8946135    123.74677   0.79397742    409.64251    3450.7824    2750.5184 
    4220       104220    127.78627    207.58131    335.36758            0            0   0.14477206    3.8947395    123.74676   0.79397742    409.64251    3450.0003    2750.5184 
    4240       104240    127.78623    207.58131    335.36754            0            0   0.14479803    3.8944608    123.74697   0.79397742    409.64251    3451.4496    2750.5184 
    4260       104260    127.78619    207.58131     335.3675            0            0   0.14485599    3.8949609    123.74637   0.79397742    409.64251    3450.3575    2750.5184 
    4280       104280    127.78616    207.58131    335.36746            0            0   0.14480839    3.8951958    123.74615   0.79397742    409.64251    3450.7495    2750.5184 
    4300       104300    127.78611    207.58131    335.36742            0            0   0.14470853    3.8940577    123.74735   0.79397742    409.64251    3450.1427    2750.5184 
    4320       104320    127.78608    207.58131    335.36738            0            0    0.1445598    3.8941651    123.74735   0.79397742    409.64251    3451.1712    2750.5184 
    4340       104340    127.78605    207.58131    335.36735            0            0   0.14439228    3.8936598    123.74799   0.79397742    409.64251    3451.1574    2750.5184 
    4360       104360    127.78601    207.58131    335.36732            0            0   0.14452656    3.8937435    123.74774   0.79397742    409.64251    3449.8609    2750.5184 
    4380       104380    127.78599    207.58131    335.36729            0            0     0.144518    3.8929331    123.74854   0.79397742    409.64251     3450.677    2750.5184 
    4400       104400    127.78596    207.58131    335.36727            0            0   0.14439828    3.8931459    123.74842   0.79397742    409.64251     3450.125    2750.5184 
    4420       104420    127.78594    207.58131    335.36725            0            0   0.14440025    3.8936455     123.7479   0.79397742    409.64251    3450.2293    2750.5184 
    4440       104440    127.78593    207.58131    335.36723            0            0   0.14446824     3.893992    123.74747   0.79397742    409.64251    3451.0264    2750.5184 
    4460       104460    127.78591    207.58131    335.36721            0            0   0.14448467     3.893646    123.74778   0.79397742    409.64251    3450.8283    2750.5184 
    4480       104480    127.78589    207.58131    335.36719            0            0   0.14445693    3.8941609    123.74727   0.79397742    409.64251    3451.2903    2750.5184 
    4500       104500    127.78586    207.58131    335.36717            0            0   0.14436972    3.8933684    123.74812   0.79397742    409.64251    3451.0055    2750.5184 
    4520       104520    127.78584    207.58131    335.36715            0            0   0.14441279    3.8941147    123.74731   0.79397742    409.64251     3450.936    2750.5184 
    4540       104540    127.78581    207.58131    335.36712            0            0   0.14455384    3.8936361    123.74762   0.79397742    409.64251     3450.608    2750.5184 
    4560       104560    127.78579    207.58131    335.36709            0            0   0.14452391    3.8929119    123.74835   0.79397742    409.64251    3449.8976    2750.5184 
    4580       104580    127.78576    207.58131    335.36707            0            0   0.14441104    3.8930269    123.74833   0.79397742    409.64251     3449.764    2750.5184 
    4600       104600    127.78574    207.58131    335.36705            0            0   0.14455964    3.8935509    123.74763   0.79397742    409.64251    3449.6397    2750.5184 
    4620       104620    127.78571    207.58131    335.36701            0            0   0.14461416    3.8940908      123.747   0.79397742    409.64251    3450.5265    2750.5184 
    4640       104640    127.78568    207.58131    335.36699            0            0   0.14450967    3.8930267    123.74815   0.79397742    409.64251    3449.7672    2750.5184 
    4660       104660    127.78567    207.58131    335.36698            0            0   0.14436741    3.8923568    123.74895   0.79397742    409.64251    3450.5329    2750.5184 
    4680       104680    127.78566    207.58131    335.36696            0            0   0.14441753    3.8926316    123.74861   0.79397742    409.64251    3450.8452    2750.5184 
    4700       104700    127.78564    207.58131    335.36694            0            0    0.1444411    3.8939656    123.74723   0.79397742    409.64251    3450.2053    2750.5184 
    4720       104720    127.78562    207.58131    335.36693            0            0    0.1443653    3.8933391    123.74792   0.79397742    409.64251     3451.065    2750.5184 
    4740       104740    127.78561    207.58131    335.36691            0            0   0.14429037    3.8932547    123.74806   0.79397742    409.64251     3451.217    2750.5184 
    4760       104760    127.78559    207.58131     335.3669            0            0   0.14437692    3.8936237    123.74759   0.79397742    409.64251    3450.7702    2750.5184 
    4780       104780    127.78558    207.58131    335.36689            0            0   0.14449264     3.893559    123.74753   0.79397742    409.64251    3451.1436    2750.5184 
    4800       104800    127.78557    207.58131    335.36687            0            0   0.14449323     3.893948    123.74713   0.79397742    409.64251    3450.4471    2750.5184 
    4820       104820    127.78555    207.58131    335.36686            0            0   0.14436695     3.893364    123.74782   0.79397742    409.64251     3450.664    2750.5184 
    4840       104840    127.78554    207.58131    335.36685            0            0   0.14440613     3.892923    123.74821   0.79397742    409.64251    3449.3066    2750.5184 
    4860       104860    127.78552    207.58131    335.36683            0            0   0.14447916    3.8929539    123.74809   0.79397742    409.64251    3451.0328    2750.5184 
    4880       104880     127.7855    207.58131    335.36681            0            0   0.14453447    3.8928493    123.74812   0.79397742    409.64251    3450.7015    2750.5184 
    4900       104900    127.78548    207.58131    335.36679            0            0   0.14441788    3.8933857    123.74767   0.79397742    409.64251    3450.2343    2750.5184 
    4920       104920    127.78546    207.58131    335.36676            0            0   0.14452509    3.8928351     123.7481   0.79397742    409.64251     3450.661    2750.5184 
    4940       104940    127.78543    207.58131    335.36674            0            0   0.14454976    3.8925528    123.74833   0.79397742    409.64251    3449.8464    2750.5184 
    4960       104960     127.7854    207.58131    335.36671            0            0   0.14460891    3.8930667    123.74773   0.79397742    409.64251    3450.7751    2750.5184 
    4980       104980    127.78538    207.58131    335.36669            0            0   0.14457803    3.8930422    123.74776   0.79397742    409.64251    3450.0275    2750.5184 
    5000       105000    127.78536    207.58131    335.36667            0            0   0.14472514    3.8929358     123.7477   0.79397742    409.64251    3450.8124    2750.5184 
    5020       105020    127.78534    207.58131    335.36664            0            0    0.1447261    3.8932683    123.74734   0.79397742    409.64251    3450.4962    2750.5184 
    5040       105040    127.78531    207.58131    335.36662            0            0   0.14454458     3.892608    123.74816   0.79397742    409.64251     3450.568    2750.5184 
    5060       105060    127.78529    207.58131     335.3666            0            0   0.14451101    3.8915178    123.74926   0.79397742    409.64251    3450.5821    2750.5184 
    5080       105080    127.78528    207.58131    335.36658            0            0    0.1443337    3.8904675    123.75048   0.79397742    409.64251    3450.0724    2750.5184 
    5100       105100    127.78526    207.58131    335.36657            0            0   0.14434112    3.8908299    123.75009   0.79397742    409.64251    3450.0188    2750.5184 
    5120       105120    127.78525    207.58131    335.36656            0            0   0.14445683    3.8909212    123.74987   0.79397742    409.64251    3450.2465    2750.5184 
    5140       105140    127.78524    207.58131    335.36655            0            0   0.14440116     3.890647     123.7502   0.79397742    409.64251    3450.1195    2750.5184 
    5160       105160    127.78524    207.58131    335.36655            0            0   0.14441673    3.8903131    123.75051   0.79397742    409.64251    3449.9256    2750.5184 
    5180       105180    127.78523    207.58131    335.36654            0            0   0.14435196    3.8903144    123.75056   0.79397742    409.64251    3450.1606    2750.5184 
    5200       105200    127.78522    207.58131    335.36653            0            0   0.14448174    3.8911042    123.74963   0.79397742    409.64251    3450.2003    2750.5184 
    5220       105220    127.78521    207.58131    335.36651            0            0   0.14460706     3.892304    123.74829   0.79397742    409.64251    3450.3164    2750.5184 
    5240       105240    127.78519    207.58131     335.3665            0            0   0.14461828    3.8923225    123.74825   0.79397742    409.64251    3450.0039    2750.5184 
    5260       105260    127.78517    207.58131    335.36648            0            0   0.14454602    3.8920236    123.74861   0.79397742    409.64251    3450.4646    2750.5184 
    5280       105280    127.78516    207.58131    335.36647            0            0    0.1445904    3.8925262    123.74804   0.79397742    409.64251    3450.1948    2750.5184 
    5300       105300    127.78515    207.58131    335.36646            0            0   0.14459187    3.8930006    123.74756   0.79397742    409.64251    3450.0805    2750.5184 
    5320       105320    127.78514    207.58131    335.36644            0            0   0.14459037    3.8925404    123.74801   0.79397742    409.64251    3450.1267    2750.5184 
    5340       105340    127.78512    207.58131    335.36643            0            0    0.1445447    3.8927363    123.74784   0.79397742    409.64251    3450.3289    2750.5184 
    5360       105360    127.78511    207.58131    335.36642            0            0   0.14440493    3.8927773    123.74793   0.79397742    409.64251     3450.008    2750.5184 
    5380       105380    127.78509    207.58131     335.3664            0            0   0.14441982    3.8925519    123.74812   0.79397742    409.64251    3450.4357    2750.5184 
    5400       105400    127.78508    207.58131    335.36639            0            0   0.14438936    3.8921035    123.74859   0.79397742    409.64251    3450.1695    2750.5184 
    5420       105420    127.78507    207.58131    335.36637            0            0    0.1442566    3.8920156    123.74879   0.79397742    409.64251    3449.7154    2750.5184 
    5440       105440    127.78506    207.58131    335.36636            0            0   0.14428773    3.8923229    123.74845   0.79397742    409.64251    3449.8873    2750.5184 
[...]
   24700       124700    127.78426    207.58131    335.36557            0            0   0.14424944    3.8909678    123.74904   0.79397742    409.64251    3449.9004    2750.5184 
   24720       124720    127.78426    207.58131    335.36557            0            0   0.14424943    3.8909693    123.74904   0.79397742    409.64251       3449.9    2750.5184 
   24740       124740    127.78426    207.58131    335.36557            0            0   0.14424953    3.8909686    123.74904   0.79397742    409.64251    3449.9006    2750.5184 
   24760       124760    127.78426    207.58131    335.36557            0            0   0.14424951     3.890969    123.74904   0.79397742    409.64251    3449.9002    2750.5184 
   24780       124780    127.78426    207.58131    335.36557            0            0   0.14424946    3.8909698    123.74904   0.79397742    409.64251    3449.8999    2750.5184 
   24800       124800    127.78426    207.58131    335.36557            0            0   0.14424957    3.8909705    123.74904   0.79397742    409.64251    3449.9011    2750.5184 
   24820       124820    127.78426    207.58131    335.36557            0            0   0.14424938    3.8909696    123.74904   0.79397742    409.64251    3449.9011    2750.5184 
   24840       124840    127.78426    207.58131    335.36557            0            0   0.14424937    3.8909694    123.74904   0.79397742    409.64251    3449.9004    2750.5184 
   24860       124860    127.78426    207.58131    335.36557            0            0   0.14424936      3.89097    123.74904   0.79397742    409.64251    3449.9007    2750.5184 
   24880       124880    127.78426    207.58131    335.36557            0            0   0.14424931    3.8909701    123.74904   0.79397742    409.64251    3449.9007    2750.5184 
   24900       124900    127.78426    207.58131    335.36557            0            0   0.14424931    3.8909696    123.74904   0.79397742    409.64251    3449.9008    2750.5184 
   24920       124920    127.78426    207.58131    335.36557            0            0   0.14424906    3.8909688    123.74904   0.79397742    409.64251    3449.9004    2750.5184 
   24940       124940    127.78426    207.58131    335.36557            0            0   0.14424919    3.8909691    123.74904   0.79397742    409.64251    3449.9009    2750.5184 
   24960       124960    127.78426    207.58131    335.36557            0            0   0.14424926    3.8909695    123.74904   0.79397742    409.64251    3449.9008    2750.5184 
   24980       124980    127.78426    207.58131    335.36557            0            0   0.14424927    3.8909696    123.74904   0.79397742    409.64251    3449.9015    2750.5184 
   25000       125000    127.78426    207.58131    335.36557            0            0   0.14424908    3.8909696    123.74904   0.79397742    409.64251    3449.9011    2750.5184 
   25020       125020    127.78426    207.58131    335.36557            0            0   0.14424908    3.8909689    123.74904   0.79397742    409.64251    3449.9013    2750.5184 
   25040       125040    127.78426    207.58131    335.36557            0            0   0.14424909    3.8909686    123.74904   0.79397742    409.64251     3449.901    2750.5184 
   25060       125060    127.78426    207.58131    335.36557            0            0   0.14424912     3.890969    123.74904   0.79397742    409.64251    3449.9009    2750.5184 
   25080       125080    127.78426    207.58131    335.36557            0            0    0.1442492    3.8909684    123.74904   0.79397742    409.64251     3449.901    2750.5184 
   25100       125100    127.78426    207.58131    335.36557            0            0   0.14424924    3.8909694    123.74904   0.79397742    409.64251    3449.9003    2750.5184 
   25120       125120    127.78426    207.58131    335.36557            0            0   0.14424938    3.8909694    123.74904   0.79397742    409.64251    3449.9009    2750.5184 
   25140       125140    127.78426    207.58131    335.36557            0            0   0.14424942    3.8909703    123.74904   0.79397742    409.64251    3449.9001    2750.5184 
   25160       125160    127.78426    207.58131    335.36557            0            0    0.1442494    3.8909693    123.74904   0.79397742    409.64251    3449.9008    2750.5184 
   25180       125180    127.78426    207.58131    335.36557            0            0   0.14424915    3.8909692    123.74904   0.79397742    409.64251    3449.9009    2750.5184 
   25200       125200    127.78426    207.58131    335.36557            0            0   0.14424924    3.8909686    123.74904   0.79397742    409.64251    3449.9008    2750.5184 
   25220       125220    127.78426    207.58131    335.36557            0            0   0.14424922    3.8909693    123.74904   0.79397742    409.64251    3449.9012    2750.5184 
   25240       125240    127.78426    207.58131    335.36557            0            0   0.14424915    3.8909692    123.74904   0.79397742    409.64251    3449.9004    2750.5184 
   25260       125260    127.78426    207.58131    335.36557            0            0   0.14424917     3.890969    123.74904   0.79397742    409.64251    3449.9011    2750.5184 
   25280       125280    127.78426    207.58131    335.36557            0            0   0.14424918    3.8909696    123.74904   0.79397742    409.64251     3449.901    2750.5184 
   25300       125300    127.78426    207.58131    335.36557            0            0   0.14424924    3.8909696    123.74904   0.79397742    409.64251    3449.9009    2750.5184 
   25320       125320    127.78426    207.58131    335.36557            0            0   0.14424925    3.8909695    123.74904   0.79397742    409.64251    3449.9008    2750.5184 
   25340       125340    127.78426    207.58131    335.36557            0            0   0.14424918    3.8909689    123.74904   0.79397742    409.64251    3449.9011    2750.5184 
   25360       125360    127.78426    207.58131    335.36557            0            0   0.14424916    3.8909689    123.74904   0.79397742    409.64251    3449.9001    2750.5184 
   25380       125380    127.78426    207.58131    335.36557            0            0   0.14424934    3.8909697    123.74904   0.79397742    409.64251     3449.901    2750.5184 
   25400       125400    127.78426    207.58131    335.36557            0            0   0.14424932    3.8909704    123.74904   0.79397742    409.64251    3449.9005    2750.5184 
   25420       125420    127.78426    207.58131    335.36557            0            0   0.14424932    3.8909694    123.74904   0.79397742    409.64251    3449.9011    2750.5184 
   25440       125440    127.78426    207.58131    335.36557            0            0   0.14424933    3.8909692    123.74904   0.79397742    409.64251    3449.9006    2750.5184 
   25460       125460    127.78426    207.58131    335.36557            0            0   0.14424941    3.8909697    123.74904   0.79397742    409.64251    3449.9006    2750.5184 
   25480       125480    127.78426    207.58131    335.36557            0            0   0.14424943    3.8909702    123.74904   0.79397742    409.64251    3449.9006    2750.5184 
   25500       125500    127.78426    207.58131    335.36557            0            0   0.14424939    3.8909692    123.74904   0.79397742    409.64251       3449.9    2750.5184 
   25520       125520    127.78426    207.58131    335.36557            0            0    0.1442494     3.890969    123.74904   0.79397742    409.64251    3449.8999    2750.5184 
   25540       125540    127.78426    207.58131    335.36557            0            0   0.14424944    3.8909689    123.74904   0.79397742    409.64251    3449.9001    2750.5184 
   25560       125560    127.78426    207.58131    335.36557            0            0   0.14424928    3.8909688    123.74904   0.79397742    409.64251    3449.9004    2750.5184 
   25580       125580    127.78426    207.58131    335.36557            0            0   0.14424927    3.8909676    123.74904   0.79397742    409.64251    3449.9007    2750.5184 
   25600       125600    127.78426    207.58131    335.36557            0            0   0.14424923    3.8909671    123.74904   0.79397742    409.64251    3449.8998    2750.5184 
   25620       125620    127.78426    207.58131    335.36557            0            0   0.14424926    3.8909674    123.74904   0.79397742    409.64251    3449.9014    2750.5184 
   25640       125640    127.78426    207.58131    335.36557            0            0   0.14424929    3.8909676    123.74904   0.79397742    409.64251    3449.9002    2750.5184 
   25660       125660    127.78426    207.58131    335.36557            0            0   0.14424927    3.8909675    123.74904   0.79397742    409.64251    3449.9004    2750.5184 
   25680       125680    127.78426    207.58131    335.36557            0            0   0.14424926    3.8909673    123.74904   0.79397742    409.64251    3449.9009    2750.5184 
   25700       125700    127.78426    207.58131    335.36557            0            0   0.14424925    3.8909671    123.74904   0.79397742    409.64251    3449.9003    2750.5184 
   25720       125720    127.78426    207.58131    335.36557            0            0   0.14424932    3.8909678    123.74904   0.79397742    409.64251    3449.9003    2750.5184 
   25740       125740    127.78426    207.58131    335.36557            0            0   0.14424929    3.8909687    123.74904   0.79397742    409.64251    3449.9006    2750.5184 
   25760       125760    127.78426    207.58131    335.36557            0            0   0.14424941    3.8909688    123.74904   0.79397742    409.64251    3449.9002    2750.5184 
   25780       125780    127.78426    207.58131    335.36557            0            0   0.14424937    3.8909688    123.74904   0.79397742    409.64251    3449.8998    2750.5184 
   25800       125800    127.78426    207.58131    335.36557            0            0   0.14424935    3.8909691    123.74904   0.79397742    409.64251    3449.9003    2750.5184 
   25820       125820    127.78426    207.58131    335.36557            0            0   0.14424941    3.8909697    123.74904   0.79397742    409.64251    3449.9003    2750.5184 
   25840       125840    127.78426    207.58131    335.36557            0            0   0.14424934    3.8909693    123.74904   0.79397742    409.64251    3449.9007    2750.5184 
   25860       125860    127.78426    207.58131    335.36557            0            0   0.14424925    3.8909693    123.74904   0.79397742    409.64251    3449.9008    2750.5184 
   25880       125880    127.78426    207.58131    335.36557            0            0   0.14424928    3.8909694    123.74904   0.79397742    409.64251    3449.9011    2750.5184 
   25900       125900    127.78426    207.58131    335.36557            0            0    0.1442493    3.8909699    123.74904   0.79397742    409.64251    3449.9006    2750.5184 
   25920       125920    127.78426    207.58131    335.36557            0            0   0.14424928    3.8909693    123.74904   0.79397742    409.64251    3449.9009    2750.5184 
   25940       125940    127.78426    207.58131    335.36557            0            0   0.14424909    3.8909686    123.74904   0.79397742    409.64251    3449.9001    2750.5184 
   25960       125960    127.78426    207.58131    335.36557            0            0   0.14424919    3.8909685    123.74904   0.79397742    409.64251    3449.9007    2750.5184 
   25980       125980    127.78426    207.58131    335.36557            0            0   0.14424921    3.8909691    123.74904   0.79397742    409.64251    3449.9006    2750.5184 
   26000       126000    127.78426    207.58131    335.36557            0            0    0.1442492    3.8909692    123.74904   0.79397742    409.64251    3449.9003    2750.5184 
   26020       126020    127.78426    207.58131    335.36557            0            0   0.14424916    3.8909694    123.74904   0.79397742    409.64251     3449.901    2750.5184 
   26040       126040    127.78426    207.58131    335.36557            0            0   0.14424912    3.8909688    123.74904   0.79397742    409.64251     3449.901    2750.5184 
   26060       126060    127.78426    207.58131    335.36557            0            0   0.14424914    3.8909689    123.74904   0.79397742    409.64251    3449.9004    2750.5184 
   26080       126080    127.78426    207.58131    335.36557            0            0   0.14424915    3.8909688    123.74904   0.79397742    409.64251     3449.901    2750.5184 
   26100       126100    127.78426    207.58131    335.36557            0            0   0.14424914    3.8909684    123.74904   0.79397742    409.64251    3449.9005    2750.5184 
   26120       126120    127.78426    207.58131    335.36557            0            0   0.14424912    3.8909688    123.74904   0.79397742    409.64251    3449.9007    2750.5184 
   26140       126140    127.78426    207.58131    335.36557            0            0   0.14424931    3.8909689    123.74904   0.79397742    409.64251    3449.9006    2750.5184 
   26160       126160    127.78426    207.58131    335.36557            0            0   0.14424936    3.8909698    123.74904   0.79397742    409.64251    3449.9005    2750.5184 
   26180       126180    127.78426    207.58131    335.36557            0            0   0.14424929    3.8909691    123.74904   0.79397742    409.64251    3449.9004    2750.5184 
   26200       126200    127.78426    207.58131    335.36557            0            0   0.14424918     3.890969    123.74904   0.79397742    409.64251    3449.9004    2750.5184 
   26220       126220    127.78426    207.58131    335.36557            0            0   0.14424918    3.8909684    123.74904   0.79397742    409.64251    3449.9004    2750.5184 
   26240       126240    127.78426    207.58131    335.36557            0            0   0.14424917    3.8909687    123.74904   0.79397742    409.64251    3449.9008    2750.5184 
   26260       126260    127.78426    207.58131    335.36557            0            0   0.14424911    3.8909684    123.74904   0.79397742    409.64251    3449.9007    2750.5184 
   26280       126280    127.78426    207.58131    335.36557            0            0   0.14424912    3.8909687    123.74904   0.79397742    409.64251    3449.9008    2750.5184 
   26300       126300    127.78426    207.58131    335.36557            0            0   0.14424916    3.8909692    123.74904   0.79397742    409.64251     3449.901    2750.5184 
   26320       126320    127.78426    207.58131    335.36557            0            0   0.14424926    3.8909693    123.74904   0.79397742    409.64251     3449.901    2750.5184 
   26340       126340    127.78426    207.58131    335.36557            0            0   0.14424923    3.8909691    123.74904   0.79397742    409.64251    3449.9006    2750.5184 
   26360       126360    127.78426    207.58131    335.36557            0            0   0.14424918    3.8909688    123.74904   0.79397742    409.64251    3449.9004    2750.5184 
   26380       126380    127.78426    207.58131    335.36557            0            0    0.1442491    3.8909686    123.74904   0.79397742    409.64251    3449.9006    2750.5184 
   26400       126400    127.78426    207.58131    335.36557            0            0   0.14424922    3.8909691    123.74904   0.79397742    409.64251    3449.9004    2750.5184 
   26420       126420    127.78426    207.58131    335.36557            0            0   0.14424925    3.8909694    123.74904   0.79397742    409.64251    3449.9009    2750.5184 
   26440       126440    127.78426    207.58131    335.36557            0            0   0.14424928    3.8909694    123.74904   0.79397742    409.64251    3449.9004    2750.5184 
   26460       126460    127.78426    207.58131    335.36557            0            0   0.14424927    3.8909692    123.74904   0.79397742    409.64251    3449.9006    2750.5184 
   26480       126480    127.78426    207.58131    335.36557            0            0    0.1442493    3.8909693    123.74904   0.79397742    409.64251    3449.9005    2750.5184 
   26500       126500    127.78426    207.58131    335.36557            0            0    0.1442494    3.8909697    123.74904   0.79397742    409.64251    3449.9008    2750.5184 
   26520       126520    127.78426    207.58131    335.36557            0            0   0.14424929     3.890969    123.74904   0.79397742    409.64251    3449.9001    2750.5184 
   26540       126540    127.78426    207.58131    335.36557            0            0   0.14424933    3.8909686    123.74904   0.79397742    409.64251    3449.9001    2750.5184 
   26560       126560    127.78426    207.58131    335.36557            0            0   0.14424936    3.8909685    123.74904   0.79397742    409.64251    3449.9005    2750.5184 
   26580       126580    127.78426    207.58131    335.36557            0            0   0.14424927    3.8909689    123.74904   0.79397742    409.64251    3449.9004    2750.5184 
   26600       126600    127.78426    207.58131    335.36557            0            0   0.14424929    3.8909681    123.74904   0.79397742    409.64251    3449.9006    2750.5184 
   26620       126620    127.78426    207.58131    335.36557            0            0   0.14424921    3.8909674    123.74904   0.79397742    409.64251    3449.9002    2750.5184 
   26640       126640    127.78426    207.58131    335.36557            0            0   0.14424924    3.8909676    123.74904   0.79397742    409.64251    3449.9004    2750.5184 
   26660       126660    127.78426    207.58131    335.36557            0            0    0.1442492    3.8909678    123.74904   0.79397742    409.64251    3449.9002    2750.5184 
   26680       126680    127.78426    207.58131    335.36557            0            0    0.1442492    3.8909674    123.74904   0.79397742    409.64251    3449.9003    2750.5184 
   26692       126692    127.78426    207.58131    335.36557            0            0    0.1442492    3.8909677    123.74904   0.79397742    409.64251    3449.9004    2750.5184 
Loop time of 4.61349 on 1 procs for 26692 steps with 171 atoms

92.8% CPU use with 1 MPI tasks x 1 OpenMP threads

Minimization stats:
  Stopping criterion = energy tolerance
  Energy initial, next-to-last, final = 
      318.915280525301   127.784259542575   127.784259542575
  Force two-norm initial, final = 524.06177 1.3209597e-05
  Force max component initial, final = 89.117137 2.4273542e-06
  Final line search alpha, max atom move = 1.0000000 2.4273542e-06
  Iterations, force evaluations = 26692 53384

MPI task timing breakdown:
Section |  min time  |  avg time  |  max time  |%varavg| %total
---------------------------------------------------------------
Pair    | 0.12598    | 0.12598    | 0.12598    |   0.0 |  2.73
Bond    | 3.8783     | 3.8783     | 3.8783     |   0.0 | 84.06
Neigh   | 0          | 0          | 0          |   0.0 |  0.00
Comm    | 0          | 0          | 0          |   0.0 |  0.00
Output  | 0.32201    | 0.32201    | 0.32201    |   0.0 |  6.98
Modify  | 0          | 0          | 0          |   0.0 |  0.00
Other   |            | 0.2872     |            |       |  6.22

Nlocal:        171.000 ave         171 max         171 min
Histogram: 1 0 0 0 0 0 0 0 0 0
Nghost:        0.00000 ave           0 max           0 min
Histogram: 1 0 0 0 0 0 0 0 0 0
Neighs:        63.0000 ave          63 max          63 min
Histogram: 1 0 0 0 0 0 0 0 0 0
FullNghs:      0.00000 ave           0 max           0 min
Histogram: 1 0 0 0 0 0 0 0 0 0

Total # of neighbors = 63
Ave neighs/atom = 0.36842105
Ave special neighs/atom = 11.824561
Neighbor list builds = 11
Dangerous builds = 0

write_data   sistema_equilibrio_compre.data
System init for write_data ...

print "All done"
All done
Total wall time: 0:00:11
