# -- simulation protocol --

timestep                0.001
reset_timestep          0

fix                             1 all npt temp 1.0 1.0 2.0 iso 0.0 0.0 10.0
thermo                          100   # imprima cada 1000 puntos
thermo_style            custom step temp pe etotal epair pxx pyy pzz lx ly lz
thermo_style            custom step time pe ke etotal evdwl ecoul ebond eangle edihed density temp press vol
run                             49000
Neighbor list info ...
  update every 1 steps, delay 10 steps, check yes
  max neighbors/atom: 2000, page size: 100000
  master list distance cutoff = 2.09
  ghost atom cutoff = 6
  binsize = 1.045, bins = 24 11 10
  1 neighbor lists, perpetual/occasional/extra = 1 0 0
  (1) pair lj/cut/coul/cut, perpetual
      attributes: half, newton on
      pair build: half/bin/newton
      stencil: half/bin/3d/newton
      bin: standard
WARNING: Bond/angle/dihedral extent > half of periodic box length (src/domain.cpp:933)
Per MPI rank memory allocation (min/avg/max) = 13.39 | 13.39 | 13.39 Mbytes
1Step Time PotEng KinEng TotEng E_vdwl E_coul E_bond E_angle E_dihed Density Temp Press Volume 
       0            0    126.93288    198.96621    325.89909            0            0    0.1132932    3.0833698    123.73622   0.86686592    392.64141    3610.2841    2519.2471 
     100          0.1    127.41378    136.23153    263.64531            0            0   0.56953372    3.0969392    123.74731    0.8618705    268.84032   -943.91358    2533.8487 
     200          0.2    127.94076    83.977146    211.91791            0            0    1.0371939    3.1459099    123.75766   0.86031753    165.72113   -2954.2371    2538.4226 
     300          0.3    127.73807     53.57656    181.31463            0            0   0.76284208    3.2084979    123.76673   0.86975756    105.72838    2906.8379    2510.8715 
     400          0.4    127.93765    35.259459    163.19711            0            0   0.88896861    3.2741038    123.77458   0.86729304    69.581281    889.84404    2518.0065 
     500          0.5     128.6575      24.0427     152.7002            0            0     1.537794    3.3383175    123.78139   0.86153151    47.446045   -3235.4376    2534.8457 
     600          0.6    128.54061    17.109866    145.65048            0            0    1.3542664     3.399036    123.78731   0.86846803    33.764739    1343.3103    2514.5997 
     700          0.7    128.85603    12.457496    141.31353            0            0    1.6080616    3.4555041    123.79247   0.86962849    24.583717    2040.3102    2511.2442 
     800          0.8    129.19804    9.2247882    138.42283            0            0    1.8932345    3.5078128      123.797   0.86302601    18.204266   -2507.3094    2530.4561 
     900          0.9    129.16948     7.019687    136.18917            0            0    1.8124531    3.5560456    123.80098   0.86656811    13.852703   -147.71034    2520.1129 
    1000            1    129.48796    5.4307715    134.91873            0            0    2.0831315    3.6003397    123.80449   0.87024419    10.717125    2314.1478    2509.4674 
    1100          1.1    129.54636    4.2329295    133.77929            0            0     2.097688    3.6410889    123.80759   0.86485471    8.3532948   -1371.0612    2525.1056 
    1200          1.2    129.64882     3.357825    133.00664            0            0    2.1599036    3.6785872    123.81033   0.86523436    6.6263571   -1133.5412    2523.9976 
    1300          1.3    129.82174    2.7049526    132.52669            0            0    2.2960041    3.7130026    123.81273   0.86983054    5.3379737    1970.5592    2510.6608 
    1400          1.4    129.79401    2.1917569    131.98577            0            0    2.2345446    3.7446173    123.81485   0.86653645    4.3252295   -278.79052     2520.205 
    1500          1.5    129.93869    1.7999758    131.73866            0            0    2.3482877    3.7736897    123.81671   0.86463319    3.5520858   -1581.5904    2525.7525 
    1600          1.6      129.958    1.5047509    131.46275            0            0    2.3393235    3.8003511    123.81832   0.86890618    2.9694866    1310.0207    2513.3317 
    1700          1.7    129.95088    1.2706482    131.22153            0            0    2.3063981    3.8247719    123.81971   0.86783897    2.5075068    577.88403    2516.4224 
    1800          1.8     130.0424    1.0884674    131.13087            0            0    2.3743536    3.8471462     123.8209   0.86466275    2.1479897   -1584.7891    2525.6662 
    1900          1.9    129.97758   0.95350965    130.93109            0            0    2.2881048     3.867578     123.8219    0.8677913    1.8816631    533.16611    2516.5607 
    2000            2    130.00289   0.84962457    130.85251            0            0        2.294    3.8861669    123.82272   0.86866172    1.6766555    1118.9358     2514.039 
    2100          2.1    129.99956   0.76986894    130.76943            0            0    2.2731399    3.9030489    123.82338   0.86518466    1.5192652   -1245.8278    2524.1426 
    2200          2.2     129.9265   0.71479477    130.64129            0            0    2.1843132    3.9183101    123.82387   0.86672805    1.4105814   -202.24254    2519.6478 
    2300          2.3    129.94382   0.67714259    130.62096            0            0    2.1875787    3.9320124    123.82423   0.86895946    1.3362783    1308.7326    2513.1776 
    2400          2.4    129.86569   0.65082089    130.51651            0            0    2.0970044    3.9442469    123.82444    0.8660187    1.2843348   -690.87863    2521.7117 
    2500          2.5    129.82082   0.63731228    130.45813            0            0    2.0412163    3.9550862    123.82452   0.86592143    1.2576768   -760.08472    2521.9949 
    2600          2.6    129.79003   0.63401258    130.42404            0            0     2.000981    3.9645755    123.82447   0.86876641    1.2511652    1168.0982    2513.7361 
    2700          2.7    129.68994   0.63530732    130.32525            0            0    1.8928551    3.9727764    123.82431   0.86694468    1.2537202   -71.338592    2519.0182 
    2800          2.8    129.66229   0.64212489    130.30442            0            0    1.8585136    3.9797494    123.82403   0.86550698    1.2671741   -1049.9692    2523.2026 
    2900          2.9    129.57969   0.65471085     130.2344            0            0    1.7705045    3.9855349    123.82365   0.86820786    1.2920113    780.76763    2515.3533 
    3000            3    129.49966    0.6680943    130.16775            0            0    1.6863156    3.9901791    123.82316   0.86774612    1.3184223    464.78404    2516.6917 
    3100          3.1      129.459   0.68198019    130.14098            0            0    1.6426776    3.9937324    123.82259   0.86551944    1.3458248   -1049.2046    2523.1663 
    3200          3.2     129.3556    0.6984488    130.05405            0            0     1.537447    3.9962355    123.82192   0.86747218    1.3783241    273.86078    2517.4865 
    3300          3.3    129.30286    0.7137412     130.0166            0            0    1.4839683    3.9977295    123.82116   0.86826195    1.4085023    807.52547    2515.1965 
    3400          3.4    129.23433   0.72615607    129.96049            0            0    1.4157395    3.9982581    123.82033   0.86589192    1.4330018   -803.68808    2522.0809 
    3500          3.5    129.14651   0.73867087    129.88518            0            0    1.3292224    3.9978626    123.81943   0.86676064    1.4576986   -216.39849    2519.5531 
    3600          3.6    129.10283   0.74934622    129.85218            0            0    1.2877935    3.9965849    123.81846   0.86841991    1.4787655    907.53908     2514.739 
    3700          3.7    129.01869   0.75540045    129.77409            0            0    1.2068001    3.9944654    123.81742   0.86648398    1.4907129   -408.96665    2520.3576 
    3800          3.8    128.96164   0.75972767    129.72136            0            0    1.1537617    3.9915441    123.81633   0.86623762    1.4992523   -578.55181    2521.0744 
    3900          3.9    128.90928   0.76242862     129.6717            0            0    1.1062224    3.9878647    123.81519   0.86824205    1.5045824    779.75312    2515.2542 
    4000            4     128.8343   0.76035625    129.59466            0            0    1.0368359    3.9834668      123.814   0.86712549    1.5004927    19.528158     2518.493 
    4100          4.1    128.79885   0.75550566    129.55436            0            0    1.0076932    3.9783868    123.81277   0.86599715    1.4909205   -748.64369    2521.7744 
    4200          4.2    128.73736   0.74965786    129.48702            0            0   0.95318662     3.972668     123.8115     0.867825    1.4793805    489.93568     2516.463 
    4300          4.3    128.68727    0.7401012    129.42737            0            0   0.91071317    3.9663497    123.81021   0.86766142    1.4605213    376.78168    2516.9374 
    4400          4.4    128.65591   0.72752858    129.38344            0            0   0.88756885    3.9594638    123.80888   0.86605233    1.4357104   -717.51554    2521.6137 
    4500          4.5    128.59889   0.71461059     129.3135            0            0   0.83931001    3.9520493    123.80753   0.86730509    1.4102179    130.93709    2517.9715 
    4600          4.6    128.57118   0.69964487    129.27083            0            0   0.82087597    3.9441448    123.80616   0.86798553    1.3806844    591.01036    2515.9975 
    4700          4.7    128.53496   0.68210803    129.21707            0            0   0.79439982    3.9357777    123.80478   0.86634566    1.3460771   -523.84273      2520.76 
    4800          4.8    128.49537   0.66468453    129.16006            0            0   0.76500839    3.9269797    123.80339   0.86682009    1.3116934    -203.3472    2519.3803 
    4900          4.9    128.47654   0.64686769    129.12341            0            0   0.75676692    3.9177874    123.80198   0.86805686    1.2765336    634.78142    2515.7908 
    5000            5    128.43924   0.62735744     129.0666            0            0   0.73043867    3.9082247    123.80058   0.86677381    1.2380319   -237.41118    2519.5148 
    5100          5.1    128.41863    0.6081996    129.02683            0            0   0.72114849    3.8983155    123.79917    0.8664775    1.2002257   -439.61455    2520.3764 
    5200          5.2    128.39739   0.58990804     128.9873            0            0   0.71153728     3.888092    123.79776   0.86789844     1.164129    524.04081      2516.25 
    5300          5.3    128.36782    0.5709601    128.93878            0            0   0.69389212    3.8775765    123.79635   0.86721837    1.1267369    61.704647    2518.2233 
    5400          5.4    128.35713   0.55246671     128.9096            0            0   0.69539661    3.8667855    123.79495   0.86633514     1.090242   -538.34085    2520.7906 
    5500          5.5    128.33173   0.53557243     128.8673            0            0   0.68242651    3.8557459    123.79356   0.86758169    1.0569026    307.52658    2517.1687 
    5600          5.6    128.31389   0.51899317    128.83288            0            0   0.67723611    3.8444793    123.79217   0.86757482     1.024185    302.76087    2517.1886 
    5700          5.7    128.30226   0.50293112    128.80519            0            0   0.67846033    3.8329971     123.7908    0.8663961   0.99248806   -497.24198    2520.6132 
    5800          5.8    128.27795   0.48872611    128.76668            0            0   0.66719713      3.82132    123.78944   0.86720277   0.96445577    50.647338    2518.2686 
    5900          5.9    128.26776   0.47559783    128.74336            0            0   0.67020163     3.809469    123.78809   0.86777372   0.93854832    438.74818    2516.6116 
    6000            6    128.25028   0.46306855    128.71335            0            0   0.66606945    3.7974536    123.78676   0.86661651   0.91382296    -346.0312    2519.9722 
    6100          6.1    128.23196    0.4523149    128.68428            0            0   0.66123638    3.7852882    123.78544   0.86685717   0.89260162   -181.71014    2519.2725 
    6200          6.2     128.2215   0.44312562    128.66462            0            0   0.66436098    3.7729931    123.78414   0.86779102   0.87446743    453.34831    2516.5615 
    6300          6.3     128.2003   0.43464878    128.63495            0            0   0.65686261    3.7605779    123.78286    0.8669222   0.85773917   -135.04392    2519.0836 
    6400          6.4    128.18755    0.4276707    128.61522            0            0   0.65789506    3.7480521     123.7816   0.86661858   0.84396857    -339.5743    2519.9661 
    6500          6.5    128.17145   0.42246589    128.59392            0            0   0.65566271    3.7354346    123.78036   0.86764675   0.83369735    360.11085    2516.9799 
    6600          6.6    128.15116   0.41810089    128.56926            0            0   0.64928906    3.7227366    123.77914   0.86722963   0.82508344    78.924154    2518.1905 
    6700          6.7    128.13909   0.41487756    128.55397            0            0   0.65118566    3.7099647    123.77794   0.86652557   0.81872249   -396.86055    2520.2366 
    6800          6.8    128.11758   0.41338825    128.53096            0            0   0.64367824    3.6971355    123.77676   0.86739436   0.81578349    195.18935    2517.7123 
    6900          6.9    128.10024   0.41284968    128.51309            0            0   0.64037243    3.6842626    123.77561   0.86746582   0.81472066     246.1724    2517.5049 
    7000            7    128.08401   0.41309421     128.4971            0            0    0.6381746    3.6713518    123.77448   0.86657801   0.81520321   -353.83874    2520.0841 
    7100          7.1    128.06086   0.41483279    128.47569            0            0   0.62906575     3.658417    123.77337   0.86710421   0.81863415    6.1324477    2518.5548 
    7200          7.2    128.04459   0.41758381    128.46218            0            0   0.62682513     3.645474    123.77229   0.86758327   0.82406302    334.24269    2517.1641 
    7300          7.3    128.02298   0.42080608    128.44378            0            0   0.61921116    3.6325298    123.77124   0.86674237   0.83042187   -233.50926    2519.6062 
    7400          7.4    128.00145   0.42513677    128.42659            0            0   0.61164924    3.6195957    123.77021   0.86684556    0.8389681    -160.2951    2519.3063 
    7500          7.5    127.98283   0.43046236    128.41329            0            0   0.60693264    3.6066888     123.7692   0.86756733   0.84947766    332.92719    2517.2103 
    7600          7.6    127.95828   0.43601932     128.3943            0            0   0.59623281    3.5938186    123.76823   0.86696364   0.86044379    -73.48867    2518.9631 
    7700          7.7    127.93862   0.44221413    128.38084            0            0   0.59035012    3.5809947    123.76728   0.86667128   0.87266868   -268.49363    2519.8129 
    7800          7.8    127.91595    0.4492845    128.36524            0            0   0.58136295    3.5682341    123.76635   0.86743539   0.88662141     253.7094    2517.5932 
    7900          7.9    127.89181   0.45642499    128.34824            0            0   0.57080343    3.5555494    123.76546   0.86718052    0.9007125    84.278356    2518.3332 
    8000            8    127.87195   0.46371376    128.33566            0            0   0.56440245    3.5429491    123.76459   0.86660819   0.91509622   -300.60094    2519.9963 
    8100          8.1    127.84654   0.47164882    128.31819            0            0   0.55233405    3.5304497    123.76375     0.867229   0.93075532    124.45929    2518.1924 
    8200          8.2    127.82434   0.47956141    128.30391            0            0   0.54333312    3.5180657    123.76295   0.86734003   0.94637009    203.49164      2517.87 
    8300          8.3    127.80236   0.48718088    128.28954            0            0    0.5343895    3.5058061    123.76216    0.8666543    0.9614064   -258.31818    2519.8623 
    8400          8.4    127.77711   0.49512104    128.27223            0            0   0.52201136    3.4936852    123.76141   0.86700167   0.97707559   -18.867394    2518.8527 
    8500          8.5    127.75606   0.50299119    128.25905            0            0   0.51364822     3.481719    123.76069   0.86740864   0.99260659    261.01674    2517.6708 
    8600          8.6    127.73205   0.51023389    128.24228            0            0   0.50213616    3.4699171    123.75999   0.86678287    1.0068994   -160.17752    2519.4885 
    8700          8.7    127.70906   0.51741393    128.22647            0            0   0.49143955    3.4582913    123.75933   0.86680542    1.0210685   -141.33335    2519.4229 
    8800          8.8    127.68754   0.52449051    128.21203            0            0    0.4819868    3.4468574    123.75869   0.86737767    1.0350335    250.58387    2517.7608 
    8900          8.9    127.66337   0.53075061    128.19412            0            0   0.46966105    3.4356255    123.75809   0.86695139    1.0473872   -35.386492    2518.9987 
    9000            9    127.64274   0.53656509     128.1793            0            0   0.46062633    3.4246049    123.75751   0.86667925    1.0588616   -216.82225    2519.7897 
    9100          9.1    127.62017   0.54222812     128.1624            0            0   0.44940359    3.4138096    123.75696   0.86726249     1.070037    182.27796    2518.0952 
    9200          9.2    127.59783   0.54703828    128.14487            0            0   0.43814614    3.4032497    123.75644   0.86711319    1.0795295    84.012172    2518.5287 
    9300          9.3    127.57825   0.55108435    128.12934            0            0   0.42937802     3.392932    123.75594   0.86664187     1.087514   -232.96664    2519.8984 
    9400          9.4    127.55566   0.55489934    128.11056            0            0   0.41731713    3.3828674    123.75548   0.86709641    1.0950425    78.402922    2518.5774 
    9500          9.5    127.53581   0.55795197    128.09376            0            0    0.4077054    3.3730651    123.75504   0.86722852    1.1010666     170.7498    2518.1938 
    9600          9.6    127.51617   0.56003865    128.07621            0            0   0.39801251    3.3635297    123.75463   0.86668977    1.1051845   -192.43703    2519.7591 
    9700          9.7    127.49524   0.56178291    128.05702            0            0   0.38673186    3.3542682    123.75424   0.86692124    1.1086266   -32.956068    2519.0864 
    9800          9.8    127.47713   0.56293135    128.04006            0            0   0.37796292    3.3452878    123.75388   0.86727304     1.110893     208.0428    2518.0645 
    9900          9.9    127.45753    0.5630541    128.02059            0            0   0.36740031    3.3365912    123.75354    0.8668005    1.1111352   -110.70673    2519.4372 
   10000           10    127.43927   0.56270766    128.00198            0            0   0.35785949    3.3281813    123.75323   0.86677677    1.1104515   -124.97941    2519.5062 
   10100         10.1    127.42183   0.56194786    127.98378            0            0   0.34882547    3.3200626    123.75294   0.86724178    1.1089521     192.3252    2518.1553 
   10200         10.2    127.40338   0.56023769    127.96362            0            0   0.33847406    3.3122359    123.75267   0.86693986    1.1055773   -11.163694    2519.0322 
   10300         10.3    127.38754   0.55794268    127.94549            0            0   0.33041476    3.3047005    123.75243   0.86669203    1.1010483   -178.12339    2519.7526 
   10400         10.4    127.37048   0.55538134    127.92586            0            0   0.32082076    3.2974578     123.7522   0.86714833    1.0959937    132.69393    2518.4266 
   10500         10.5    127.35427   0.55204527    127.90631            0            0    0.3117634    3.2905066      123.752   0.86707098    1.0894103    81.066331    2518.6513 
   10600         10.6    127.33991   0.54804775    127.88796            0            0   0.30425888    3.2838435    123.75181   0.86667971    1.0815215   -183.85395    2519.7884 
   10700         10.7    127.32396   0.54386629    127.86783            0            0   0.29485581    3.2774667    123.75164   0.86701985    1.0732698    47.525572    2518.7998 
   10800         10.8    127.31023   0.53913608    127.84937            0            0   0.28737392    3.2713733    123.75149   0.86716313    1.0639352     145.0708    2518.3837 
   10900         10.9    127.29674   0.53372788    127.83047            0            0    0.2798306    3.2655577    123.75135   0.86673493    1.0532626    -145.4995    2519.6278 
   11000           11    127.28298   0.52815114    127.81113            0            0   0.27173957    3.2600156    123.75123   0.86688948    1.0422574   -40.685171    2519.1786 
   11100         11.1    127.27122   0.52225188    127.79348            0            0   0.26536161    3.2547423    123.75112   0.86719815    1.0306158    168.55489     2518.282 
   11200         11.2    127.25882   0.51572674    127.77454            0            0   0.25806258    3.2497312    123.75102    0.8668381     1.017739   -76.318502    2519.3279 
   11300         11.3    127.24783   0.50900197    127.75683            0            0   0.25191699    3.2449755    123.75094   0.86678809    1.0044683   -110.91851    2519.4733 
   11400         11.4    127.23745   0.50214313    127.73959            0            0   0.24611084    3.2404696    123.75087   0.86717347   0.99093303    149.84893    2518.3536 
   11500         11.5    127.22694   0.49477393    127.72172            0            0   0.23993324    3.2362059     123.7508   0.86696084   0.97639059    4.5125222    2518.9713 
   11600         11.6     127.2185   0.48716067    127.70566            0            0     0.235575    3.2321766    123.75075   0.86673738   0.96136652   -148.34297    2519.6207 
   11700         11.7    127.20945   0.47954496    127.68899            0            0   0.23036809    3.2283749     123.7507   0.86710119   0.94633762    97.287586    2518.5636 
   11800         11.8    127.20151   0.47158098    127.67309            0            0   0.22605169     3.224793    123.75066   0.86707332   0.93062145    76.887773    2518.6445 
   11900         11.9    127.19497   0.46334909    127.65832            0            0   0.22291865    3.2214224    123.75063   0.86674565   0.91437657   -147.16369    2519.5967 
   12000           12    127.18777   0.45518993    127.64296            0            0    0.2189136    3.2182559     123.7506   0.86700386   0.89827522    26.347187    2518.8463 
   12100         12.1    127.18242   0.44686798    127.62929            0            0   0.21655592    3.2152856    123.75058   0.86715127   0.88185264    124.51545    2518.4181 
   12200         12.2    127.17736   0.43829972    127.61566            0            0   0.21429631    3.2125031    123.75057   0.86680709   0.86494397   -111.13377    2519.4181 
   12300         12.3     127.1726   0.42983849    127.60244            0            0    0.2121489    3.2099009    123.75055   0.86690825    0.8482465   -44.597957    2519.1241 
   12400         12.4     127.1693   0.42139981     127.5907            0            0   0.21128977    3.2074715    123.75054   0.86718107   0.83159356    138.35581    2518.3315 
   12500         12.5    127.16577   0.41279254    127.57857            0            0   0.21003402    3.2052069    123.75053   0.86690434   0.81460791   -51.825791    2519.1354 
   12600         12.6    127.16353   0.40430921    127.56784            0            0   0.20990391    3.2030995    123.75052   0.86683871   0.79786682   -98.803462    2519.3262 
   12700         12.7    127.16167   0.39601534    127.55768            0            0   0.21000695    3.2011425    123.75052    0.8671619   0.78149964    118.08183    2518.3872 
   12800         12.8    127.15996   0.38768293    127.54764            0            0   0.21011755    3.1993284    123.75051   0.86701345   0.76505641    14.743918    2518.8184 
   12900         12.9    127.15971    0.3794979    127.53921            0            0   0.21154678    3.1976503    123.75051    0.8668116     0.748904   -124.90493     2519.405 
   13000           13      127.159   0.37164103    127.53064            0            0   0.21239115    3.1961017    123.75051   0.86710473    0.7333992    71.398345    2518.5533 
   13100         13.1    127.15916   0.36391364    127.52308            0            0   0.21398635    3.1946761     123.7505   0.86710995    0.7181499    72.224906    2518.5381 
   13200         13.2     127.1601   0.35638196    127.51648            0            0   0.21623548    3.1933671     123.7505   0.86683214   0.70328683   -119.09983    2519.3453 
   13300         13.3    127.16056   0.34928831    127.50984            0            0   0.21789709     3.192169    123.75049   0.86702871   0.68928817    11.560009    2518.7741 
   13400         13.4    127.16215   0.34251085    127.50466            0            0   0.22059201    3.1910762    123.75048   0.86717454   0.67591349    107.77225    2518.3505 
   13500         13.5    127.16364   0.33601208    127.49965            0            0   0.22308415     3.190083    123.75047   0.86689405   0.66308876   -85.396185    2519.1653 
   13600         13.6    127.16524   0.33003899    127.49528            0            0   0.22559478    3.1891845    123.75046   0.86695589   0.65130142   -46.187586    2518.9857 
   13700         13.7    127.16748    0.3245689    127.49205            0            0   0.22865502     3.188376    123.75045   0.86719704   0.64050671    114.75557    2518.2852 
   13800         13.8    127.16924   0.31949604    127.48873            0            0   0.23115267    3.1876528    123.75043   0.86698185   0.63049589   -34.033239    2518.9102 
   13900         13.9    127.17162   0.31502471    127.48664            0            0   0.23419312    3.1870107    123.75041    0.8669058   0.62167213   -88.333027    2519.1312 
   14000           14    127.17376   0.31122896    127.48499            0            0   0.23692239    3.1864461    123.75039   0.86717799   0.61418156    93.804136    2518.3405 
   14100         14.1    127.17568   0.30797844    127.48366            0            0   0.23935406     3.185955    123.75037   0.86707514   0.60776697    21.413982    2518.6392 
   14200         14.2    127.17814   0.30540397    127.48355            0            0   0.24226069    3.1855343    123.75035   0.86689094   0.60268648    -106.1178    2519.1744 
   14300         14.3    127.17978   0.30365435    127.48344            0            0   0.24427978    3.1851812    123.75032   0.86712757   0.59923377    52.079702    2518.4869 
   14400         14.4    127.18163   0.30261638    127.48425            0            0   0.24644705    3.1848927    123.75029   0.86715369   0.59718544    67.474734    2518.4111 
   14500         14.5    127.18343   0.30233498    127.48577            0            0   0.24850774    3.1846667    123.75026   0.86691438   0.59663012   -97.209645    2519.1063 
   14600         14.6    127.18446   0.30299894    127.48746            0            0   0.24973103    3.1845011    123.75023   0.86706233   0.59794038    1.0855139    2518.6764 
   14700         14.7    127.18578   0.30454444    127.49032            0            0   0.25119485    3.1843942    123.75019   0.86720208   0.60099029    93.930749    2518.2706 
   14800         14.8    127.18647   0.30693447     127.4934            0            0   0.25197157    3.1843445    123.75015   0.86696963   0.60570679   -65.750908    2518.9458 
   14900         14.9    127.18684   0.31035645     127.4972            0            0   0.25237649    3.1843511    123.75011   0.86700078   0.61245975    -46.36624    2518.8552 
   15000           15    127.18711   0.31481368    127.50192            0            0   0.25262459    3.1844132    123.75007   0.86721285   0.62125567    95.965954    2518.2393 
   15100         15.1    127.18662   0.32020366    127.50682            0            0    0.2520574    3.1845303    123.75003   0.86704285   0.63189231   -20.896171     2518.733 
   15200         15.2    127.18619   0.32666949    127.51286            0            0   0.25150506    3.1847025    123.74998    0.8669588   0.64465202   -79.260468    2518.9772 
   15300         15.3    127.18512   0.33428144     127.5194            0            0   0.25024728    3.1849298    123.74994   0.86718759   0.65967351    74.893642    2518.3126 
   15400         15.4    127.18362   0.34289612    127.52652            0            0   0.24851555    3.1852129    123.74989   0.86711656   0.67667379    25.709207    2518.5189 
   15500         15.5     127.1822   0.35257222    127.53477            0            0    0.2467982    3.1855525    123.74985   0.86694603   0.69576866   -90.832826    2519.0143 
   15600         15.6     127.1799   0.36342706    127.54333            0            0   0.24414642    3.1859499     123.7498   0.86713582   0.71718969    37.397073     2518.463 
   15700         15.7    127.17764   0.37530447    127.55294            0            0   0.24146977    3.1864064    123.74976   0.86717391   0.74062866    62.847739    2518.3524 
   15800         15.8    127.17518    0.3881473    127.56332            0            0    0.2385374    3.1869239    123.74972   0.86696399    0.7659728   -79.850439    2518.9621 
   15900         15.9    127.17213    0.4020807    127.57421            0            0   0.23495341    3.1875043    123.74967   0.86707214   0.79346908   -6.4312926    2518.6479 
   16000           16    127.16932   0.41696251    127.58628            0            0   0.23153263    3.1881498    123.74963   0.86720259   0.82283695    82.339414    2518.2691 
   16100         16.1    127.16615   0.43260485    127.59876            0            0   0.22769552     3.188863     123.7496   0.86700624   0.85370565   -50.507806    2518.8394 
   16200         16.2      127.163   0.44908738    127.61209            0            0   0.22379284    3.1896466    123.74956   0.86701235   0.88623241   -45.708714    2518.8216 
   16300         16.3    127.15996   0.46630235    127.62627            0            0   0.21992919    3.1905033    123.74953   0.86719736   0.92020455    80.756454    2518.2843 
   16400         16.4    127.15681   0.48394178    127.64075            0            0   0.21586683     3.191436    123.74951   0.86706047   0.95501433   -11.060202    2518.6818 
   16500         16.5    127.15418    0.5019849    127.65616            0            0   0.21224744     3.192448    123.74948   0.86696965   0.99062077   -71.382259    2518.9457 
   16600         16.6    127.15151     0.520368    127.67188            0            0   0.20849943    3.1935423    123.74947   0.86716076    1.0268981     59.90491    2518.3905 
   16700         16.7    127.14926    0.5387056    127.68796            0            0   0.20507385    3.1947217    123.74946   0.86711173    1.0630857    28.400503    2518.5329 
   16800         16.8    127.14775   0.55683911    127.70459            0            0   0.20230225    3.1959895    123.74946   0.86695169    1.0988705   -78.239265    2518.9979 
   16900         16.9    127.14631   0.57474627    127.72106            0            0    0.1994983    3.1973485    123.74946   0.86710205    1.1342086    26.044287    2518.5611 
   17000           17    127.14579   0.59203718    127.73783            0            0   0.19751208    3.1988012    123.74948   0.86714621    1.1683306    58.451636    2518.4328 
   17100         17.1    127.14603   0.60841629    127.75444            0            0   0.19617173    3.2003501     123.7495   0.86695916    1.2006533    -65.88096    2518.9762 
   17200         17.2    127.14675   0.62389096    127.77064            0            0    0.1952167    3.2019972    123.74954   0.86703452    1.2311911   -11.887847    2518.7572 
   17300         17.3    127.14859   0.63815676    127.78675            0            0   0.19525941    3.2037441    123.74959   0.86715441    1.2593434     72.52334     2518.409 
   17400         17.4    127.15119   0.65083194    127.80202            0            0   0.19595145    3.2055919    123.74964   0.86698612    1.2843566   -38.500998    2518.8978 
   17500         17.5    127.15478   0.66193927    127.81672            0            0   0.19752973    3.2075416    123.74971    0.8669722    1.3062759   -44.564907    2518.9383 
   17600         17.6    127.15933   0.67134083    127.83067            0            0   0.19994457     3.209593     123.7498   0.86713319     1.324829     68.26942    2518.4706 
   17700         17.7    127.16478   0.67866134    127.84345            0            0   0.20314766    3.2117455    123.74989   0.86702186    1.3392754   -3.5981206     2518.794 
   17800         17.8     127.1715     0.683929    127.85543            0            0   0.20749736    3.2139983       123.75   0.86692647    1.3496706   -64.504204    2519.0712 
   17900         17.9    127.17887   0.68721488    127.86608            0            0   0.21239162    3.2163495    123.75013   0.86708613     1.356155    47.855052    2518.6073 
   18000           18    127.18731   0.68825427    127.87556            0            0   0.21824138    3.2187964    123.75027   0.86705379    1.3582061    30.008341    2518.7012 
   18100         18.1    127.19687   0.68707742    127.88395            0            0   0.22510883    3.2213362    123.75042   0.86690362    1.3558837   -67.723561    2519.1376 
   18200         18.2    127.20689    0.6839482    127.89084            0            0   0.23232441    3.2239651     123.7506   0.86702231    1.3497085    17.161271    2518.7927 
   18300         18.3    127.21793   0.67878708    127.89671            0            0   0.24046248    3.2266787    123.75079   0.86707062    1.3395235    54.351435    2518.6524 
   18400         18.4    127.22968   0.67162712    127.90131            0            0   0.24921486    3.2294722    123.75099   0.86690371     1.325394   -54.468844    2519.1373 
   18500         18.5    127.24181   0.66285264    127.90467            0            0   0.25825993    3.2323405    123.75121   0.86695392    1.3080784   -15.839489    2518.9914 
   18600         18.6     127.2546   0.65258488    127.90718            0            0   0.26786732    3.2352775    123.75145   0.86706498    1.2878159    64.155555    2518.6687 
   18700         18.7    127.26764   0.64086129     127.9085            0            0   0.27765624    3.2382773    123.75171   0.86692103    1.2646805   -28.898611     2519.087 
   18800         18.8      127.281   0.62808524    127.90908            0            0    0.2876824    3.2413337    123.75198   0.86689318    1.2394681   -43.103128    2519.1679 
   18900         18.9    127.29439   0.61453399    127.90893            0            0    0.2976855      3.24444    123.75227   0.86703504     1.212726    57.928158    2518.7557 
   19000           19    127.30774   0.60025094    127.90799            0            0   0.30757159    3.2475896    123.75257   0.86694583    1.1845397    2.1368736    2519.0149 
   19100         19.1    127.32115   0.58556646    127.90672            0            0   0.31747804     3.250776     123.7529   0.86684957    1.1555613   -58.428807    2519.2946 
   19200         19.2    127.33404   0.57083316    127.90487            0            0   0.32680712    3.2539926    123.75324    0.8669847    1.1264864    38.091069     2518.902 
   19300         19.3    127.34666   0.55610287    127.90276            0            0   0.33583663    3.2572327    123.75359   0.86696701    1.0974176    30.881015    2518.9534 
   19400         19.4    127.35895   0.54157925    127.90053            0            0   0.34449642    3.2604903    123.75396    0.8668278    1.0687566   -58.824224    2519.3579 
   19500         19.5    127.37038   0.52760653    127.89799            0            0   0.35226933    3.2637592    123.75435    0.8669224    1.0411827    10.177058     2519.083 
   19600         19.6    127.38134   0.51424777    127.89559            0            0    0.3595542    3.2670334    123.75475   0.86697488    1.0148204    50.567065    2518.9305 
   19700         19.7    127.39155   0.50157172    127.89312            0            0   0.36606586    3.2703075    123.75517   0.86682705   0.98980541   -45.032344    2519.3601 
   19800         19.8    127.40084   0.48985093    127.89069            0            0   0.37165375    3.2735763    123.75561   0.86685894    0.9666755   -18.663992    2519.2674 
   19900         19.9    127.40939   0.47916016    127.88855            0            0   0.37649414    3.2768347    123.75606   0.86696346   0.94557827    56.971712    2518.9637 
   20000           20    127.41694   0.46945877     127.8864            0            0   0.38034248    3.2800782    123.75652   0.86684154   0.92643346   -21.144312    2519.3179 
   20100         20.1    127.42367   0.46091288    127.88458            0            0    0.3833679    3.2833026      123.757   0.86680485   0.90956894   -41.456966    2519.4246 
   20200         20.2    127.42939   0.45360431    127.88299            0            0    0.3853924    3.2865038    123.75749   0.86693182   0.89514615    49.278973    2519.0556 
   20300         20.3    127.43414   0.44742377    127.88157            0            0   0.38646867    3.2896781      123.758   0.86686227   0.88294943     6.558539    2519.2577 
   20400         20.4    127.43815   0.44242143    127.88057            0            0   0.38681115    3.2928226    123.75852   0.86676793   0.87307777   -53.051914    2519.5319 
   20500         20.5    127.44105   0.43867559    127.87972            0            0   0.38606312    3.2959339    123.75905   0.86688399    0.8656857    30.088762    2519.1946 
   20600         20.6    127.44319   0.43604928    127.87924            0            0    0.3845865    3.2990092     123.7596   0.86687933   0.86050292    31.218286    2519.2081 
   20700         20.7    127.44462   0.43448493    127.87911            0            0   0.38242095    3.3020461    123.76016   0.86675164   0.85741582   -51.251755    2519.5793 
   20800         20.8    127.44511   0.43404239    127.87915            0            0   0.37933681    3.3050425    123.76073   0.86682786   0.85654251    4.6147802    2519.3577 
   20900         20.9    127.44507   0.43458989    127.87966            0            0   0.37576275     3.307996    123.76131   0.86688444   0.85762296    47.064651    2519.1933 
   21000           21     127.4444    0.4359822    127.88038            0            0   0.37158901    3.3109049    123.76191   0.86675452   0.86037054   -37.179829    2519.5709 
   21100         21.1    127.44316   0.43824423     127.8814            0            0   0.36687987    3.3137675    123.76251   0.86677312   0.86483445   -20.695273    2519.5168 
   21200         21.2    127.44156   0.44127173    127.88283            0            0   0.36184969    3.3165821    123.76313   0.86687281   0.87080895    50.734317    2519.2271 
   21300         21.3    127.43956   0.44486053    127.88442            0            0   0.35645287    3.3193474    123.76376   0.86677082   0.87789111   -14.840818    2519.5235 
   21400         21.4    127.43741   0.44898672     127.8864            0            0   0.35095603    3.3220621    123.76439   0.86672887   0.88603376   -39.760686    2519.6455 
   21500         21.5    127.43504   0.45358535    127.88862            0            0   0.34527284    3.3247249    123.76504   0.86684417   0.89510873    41.951088    2519.3103 
   21600         21.6    127.43263   0.45842904    127.89106            0            0   0.33959649    3.3273347     123.7657   0.86679215   0.90466731    9.9798722    2519.4615 
   21700         21.7    127.43041   0.46343869    127.89385            0            0   0.33416177    3.3298905    123.76636   0.86670153    0.9145534   -48.300009    2519.7249 
   21800         21.8    127.42816   0.46859073    127.89675            0            0   0.32873701    3.3323912    123.76703   0.86680261   0.92472046     23.43806    2519.4311 
   21900         21.9    127.42626   0.47367466    127.89993            0            0   0.32371242     3.334836    123.76771   0.86680959   0.93475314    31.185092    2519.4108 
   22000           22    127.42475   0.47856181    127.90332            0            0   0.31913834    3.3372239    123.76839   0.86669343   0.94439747   -44.764444    2519.7485 
   22100         22.1    127.42351   0.48326366    127.90677            0            0   0.31487282    3.3395542    123.76908   0.86675543   0.95367615   0.12057402    2519.5682 
   22200         22.2    127.42288   0.48762542     127.9105            0            0   0.31127377    3.3418259    123.76978   0.86681588   0.96228368    43.837677    2519.3925 
   22300         22.3    127.42277   0.49148833    127.91426            0            0   0.30825901    3.3440385    123.77047   0.86670245   0.96990675    -30.57604    2519.7223 
   22400         22.4    127.42325   0.49488666    127.91813            0            0   0.30588166    3.3461911    123.77117   0.86671119   0.97661304   -22.156575    2519.6969 
   22500         22.5    127.42441   0.49775037    127.92216            0            0   0.30424618     3.348283    123.77188   0.86680702   0.98226433    45.285947    2519.4183 
   22600         22.6    127.42621   0.49992152    127.92613            0            0   0.30331761    3.3503137    123.77258   0.86672271   0.98654888   -9.6476511    2519.6634 
   22700         22.7    127.42881   0.50144232    127.93026            0            0   0.30324921    3.3522825    123.77328   0.86667757   0.98955004   -38.070095    2519.7946 
   22800         22.8    127.43203   0.50233891    127.93437            0            0    0.3038584    3.3541888    123.77398   0.86678309   0.99131938    35.691957    2519.4879 
   22900         22.9    127.43599    0.5024889    127.93848            0            0    0.3052771    3.3560322    123.77468   0.86674612   0.99161538       12.668    2519.5953 
   23000           23    127.44077   0.50192934     127.9427            0            0   0.30757777    3.3578123    123.77538   0.86665957   0.99051114   -44.067861    2519.8469 
   23100         23.1    127.44605   0.50077227    127.94682            0            0   0.31045423    3.3595288    123.77607   0.86674792   0.98822776    17.864387    2519.5901 
   23200         23.2    127.45208   0.49895972    127.95104            0            0    0.3141451    3.3611811    123.77675   0.86676433   0.98465086    30.924718    2519.5424 
   23300         23.3    127.45876   0.49651579    127.95527            0            0   0.31855344    3.3627693    123.77743   0.86665833   0.97982799   -39.139364    2519.8505 
   23400         23.4    127.46585   0.49360932    127.95946            0            0   0.32345642    3.3642933     123.7781   0.86670802   0.97409233   -3.5326967    2519.7061 
   23500         23.5    127.47353   0.49026118    127.96379            0            0   0.32901236    3.3657528    123.77876   0.86677071   0.96748509    40.891564    2519.5238 
   23600         23.6     127.4816   0.48648212    127.96808            0            0   0.33503518    3.3671482    123.77941   0.86667095   0.96002748   -24.945562    2519.8138 
   23700         23.7       127.49   0.48245855    127.97246            0            0   0.34146678    3.3684796    123.78005   0.86667076   0.95208732   -23.178968    2519.8144 
   23800         23.8    127.49867   0.47828654    127.97695            0            0   0.34823903    3.3697473    123.78068   0.86676175   0.94385425    40.514186    2519.5499 
   23900         23.9    127.50749   0.47396983    127.98146            0            0   0.35524087    3.3709519    123.78129   0.86669133   0.93533562    -5.305507    2519.7546 
   24000           24    127.51648   0.46967428    127.98616            0            0   0.36249625    3.3720939    123.78189   0.86664252   0.92685876   -36.401467    2519.8965 
   24100         24.1    127.52538   0.46555145    127.99093            0            0   0.36973208    3.3731741    123.78247   0.86673769   0.91872274    30.314809    2519.6198 
   24200         24.2    127.53424   0.46160826    127.99584            0            0   0.37700337    3.3741934    123.78304    0.8667116    0.9109412    14.810424    2519.6957 
   24300         24.3    127.54302   0.45796237    128.00098            0            0   0.38427916     3.375153    123.78359   0.86662706   0.90374638   -40.267889    2519.9414 
   24400         24.4    127.55141    0.4547908    128.00621            0            0   0.39124773    3.3760541    123.78411   0.86670221   0.89748758    13.159385     2519.723 
   24500         24.5    127.55958   0.45211371     128.0117            0            0   0.39806593    3.3768981    123.78462   0.86672403   0.89220459    30.520369    2519.6595 
   24600         24.6    127.56739   0.44998766    128.01738            0            0   0.40460076    3.3776866    123.78511   0.86662469   0.88800902   -34.218288    2519.9483 
   24700         24.7    127.57466   0.44858191    128.02324            0            0   0.41067071    3.3784216    123.78557    0.8666613   0.88523492   -6.5261012    2519.8419 
   24800         24.8    127.58149   0.44793575    128.02943            0            0   0.41637718    3.3791051    123.78601   0.86672276   0.88395978    38.199045    2519.6632 
   24900         24.9    127.58774   0.44804586    128.03578            0            0   0.42157241    3.3797392    123.78643   0.86663217   0.88417706   -20.104044    2519.9266 
   25000           25    127.59339   0.44904304    128.04243            0            0   0.42624695    3.3803266    123.78682   0.86662164    0.8861449   -23.880662    2519.9572 
   25100         25.1    127.59839   0.45098452    128.04937            0            0   0.43033871    3.3808698    123.78718   0.86670503   0.88997625    36.298589    2519.7148 
   25200         25.2    127.60271   0.45381855    128.05653            0            0   0.43381928    3.3813718    123.78752   0.86664355   0.89556894   -1.6487962    2519.8935 
   25300         25.3    127.60642   0.45761299    128.06403            0            0   0.43675901    3.3818357    123.78782   0.86658884   0.90305691   -34.792728    2520.0526 
   25400         25.4    127.60933   0.46243358    128.07177            0            0   0.43896506    3.3822651     123.7881   0.86667164   0.91256991    25.640114    2519.8118 
   25500         25.5    127.61159   0.46819676    128.07979            0            0   0.44057847    3.3826634    123.78835   0.86665164   0.92394301    16.517597      2519.87 
   25600         25.6    127.61324   0.47489158    128.08813            0            0   0.44163137    3.3830346    123.78857   0.86656609    0.9371546   -36.859326    2520.1188 
   25700         25.7    127.61408   0.48257504    128.09665            0            0   0.44193774    3.3833828    123.78876   0.86662656   0.95231722    9.1268847    2519.9429 
   25800         25.8    127.61434   0.49114931    128.10549            0            0    0.4417217    3.3837123    123.78891   0.86664968   0.96923773    30.005565    2519.8757 
   25900         25.9    127.61401   0.50051937    128.11453            0            0    0.4409494    3.3840276    123.78903   0.86655342   0.98772868   -29.900087    2520.1556 
   26000           26    127.61301   0.51071119    128.12372            0            0   0.43956126    3.3843336    123.78912   0.86657577    1.0078413    -9.030542    2520.0906 
   26100         26.1    127.61151   0.52162779    128.13314            0            0   0.43771218    3.3846351    123.78917   0.86663292    1.0293842    35.712679    2519.9244 
   26200         26.2     127.6095   0.53309788     128.1426            0            0   0.43538258    3.3849373    123.78918   0.86654772    1.0520194    -15.92018    2520.1722 
   26300         26.3    127.60705   0.54509406    128.15215            0            0   0.43264588    3.3852453    123.78916   0.86652575    1.0756927   -24.374178    2520.2361 
   26400         26.4    127.60416   0.55753116     128.1617            0            0   0.42949462    3.3855644    123.78911   0.86659969    1.1002362    32.524535     2520.021 
   26500         26.5    127.60093   0.57018407    128.17112            0            0   0.42602262    3.3858999    123.78901   0.86654367    1.1252055     1.449071     2520.184 
   26600         26.6    127.59748   0.58295713    128.18044            0            0   0.42234238    3.3862573    123.78888   0.86648191     1.150412    -33.28008    2520.3636 
   26700         26.7    127.59367   0.59578289    128.18945            0            0   0.41831853    3.3866417    123.78871   0.86655169    1.1757224     21.51432    2520.1606 
   26800         26.8    127.58973   0.60841902    128.19815            0            0   0.41416839    3.3870582    123.78851   0.86653506    1.2006587    17.880133     2520.209 
   26900         26.9    127.58572   0.62070189    128.20642            0            0   0.40994831     3.387512    123.78826   0.86644734    1.2248978    -33.80238    2520.4642 
   27000           27     127.5815   0.63258315    128.21408            0            0   0.40551402    3.3880077    123.78798   0.86649351    1.2483443     5.610545    2520.3299 
   27100         27.1    127.57731   0.64384887    128.22116            0            0   0.40110215    3.3885496    123.78766    0.8665164    1.2705762    29.415046    2520.2633 
   27200         27.2    127.57315   0.65428795    128.22744            0            0   0.39670498    3.3891419     123.7873    0.8664222    1.2911768   -26.086301    2520.5373 
   27300         27.3    127.56896   0.66386948    128.23283            0            0   0.39226533     3.389788    123.78691    0.8664315     1.310085   -11.169774    2520.5102 
   27400         27.4    127.56487   0.67245241    128.23733            0            0   0.38790029    3.3904911    123.78648   0.86648427    1.3270226    33.407632    2520.3567 
   27500         27.5    127.56089   0.67981746    128.24071            0            0   0.38361535    3.3912536    123.78602    0.8664039    1.3415569   -12.265623    2520.5905 
   27600         27.6    127.55704     0.685948    128.24299            0            0    0.3794406    3.3920773    123.78552   0.86637229    1.3536549   -24.724636    2520.6825 
   27700         27.7    127.55326   0.69080636    128.24407            0            0    0.3753117    3.3929634    123.78499   0.86643821    1.3632425    29.120376    2520.4907 
   27800         27.8    127.54966   0.69421325    128.24388            0            0   0.37132512    3.3939123    123.78442   0.86638786    1.3699656    4.1143901    2520.6372 
   27900         27.9    127.54628   0.69616296    128.24244            0            0   0.36752377    3.3949237    123.78383   0.86632126    1.3738132   -31.859287     2520.831 
   28000           28    127.54292    0.6967265    128.23965            0            0     0.363723    3.3959966    123.78321   0.86638082    1.3749253    17.843585    2520.6577 
   28100         28.1    127.53979   0.69580613    128.23559            0            0   0.36010393     3.397129    123.78255   0.86636882     1.373109    18.995707    2520.6926 
   28200         28.2    127.53685   0.69340386    128.23026            0            0   0.35665951    3.3983186    123.78187   0.86628142    1.3683684   -31.029683    2520.9469 
   28300         28.3    127.53394   0.68967598    128.22362            0            0   0.35321274    3.3995621    123.78117   0.86631716    1.3610118    2.5228076    2520.8429 
   28400         28.4    127.53123   0.68462672    128.21586            0            0   0.34993432    3.4008554    123.78044   0.86634223    1.3510475    28.802693    2520.7699 
   28500         28.5    127.52867   0.67826303    128.20693            0            0   0.34678146    3.4021942    123.77969   0.86625284    1.3384894   -22.666441    2521.0301 
   28600         28.6    127.52617   0.67078167    128.19696            0            0    0.3436762    3.4035732    123.77892    0.8662536    1.3237256   -13.001251    2521.0279 
   28700         28.7     127.5238   0.66228175    128.18608            0            0   0.34067312     3.404987    123.77814   0.86630549    1.3069518     31.29202    2520.8769 
   28800         28.8    127.52153   0.65277394    128.17431            0            0   0.33776962    3.4064294    123.77733   0.86623289     1.288189   -9.0140061    2521.0881 
   28900         28.9    127.51939   0.64244498    128.16184            0            0   0.33498122    3.4078943    123.77652   0.86619635    1.2678058   -24.946315    2521.1945 
   29000           29    127.51728   0.63145921    128.14874            0            0   0.33221977     3.409375    123.77569    0.8662586    1.2461263    26.057339    2521.0133 
   29100         29.1    127.51529   0.61983256    128.13513            0            0   0.32958186    3.4108647    123.77485   0.86621703    1.2231822    6.4623944    2521.1343 
   29200         29.2    127.51346    0.6077029    128.12116            0            0   0.32710339    3.4123566      123.774   0.86615009    1.1992455   -30.500982    2521.3291 
   29300         29.3    127.51161   0.59525974    128.10687            0            0   0.32462681    3.4138439    123.77314   0.86620424      1.17469    14.577165    2521.1715 
   29400         29.4    127.50992   0.58252893    128.09245            0            0   0.32232471    3.4153197    123.77228   0.86620012     1.149567    19.947508    2521.1835 
   29500         29.5    127.50838   0.56958269    128.07796            0            0   0.32019494    3.4167773    123.77141     0.866117    1.1240188   -28.478132    2521.4255 
   29600         29.6    127.50687   0.55659849    128.06347            0            0   0.31812024    3.4182101    123.77054   0.86614714    1.0983956  -0.19289871    2521.3377 
   29700         29.7    127.50553    0.5436176    128.04915            0            0   0.31625337    3.4196118    123.76967   0.86617772    1.0727791     28.20786    2521.2487 
   29800         29.8    127.50434   0.53065259    128.03499            0            0   0.31456595    3.4209763     123.7688   0.86609636    1.0471938   -19.559584    2521.4856 
   29900         29.9    127.50326   0.51784305     128.0211            0            0    0.3130378    3.4222977    123.76792   0.86609299    1.0219154   -14.573258    2521.4954 
   30000           30    127.50234   0.50524876    128.00758            0            0   0.31170989    3.4235706    123.76705   0.86614728   0.99706169    29.359153    2521.3373 
   30100         30.1    127.50157   0.49284414    127.99441            0            0   0.31058948    3.4247898    123.76619   0.86608491   0.97258232   -6.0841255    2521.5189 
   30200         30.2      127.501    0.4807192    127.98172            0            0   0.30972082    3.4259505    123.76533   0.86604708   0.94865488   -25.068678     2521.629 
   30300         30.3    127.50054   0.46895052    127.96949            0            0   0.30901917    3.4270482    123.76447   0.86610874   0.92543048    23.289036    2521.4495 
   30400         30.4    127.50027   0.45750113    127.95777            0            0   0.30856835    3.4280787    123.76362   0.86607774   0.90283618    8.5585669    2521.5398 
   30500         30.5    127.50021   0.44641263    127.94663            0            0   0.30839789    3.4290383    123.76278   0.86601308   0.88095404   -29.209686     2521.728 
   30600         30.6    127.50023   0.43577162      127.936            0            0   0.30836859    3.4299236    123.76194   0.86606452   0.85995498    11.642158    2521.5782 
   30700         30.7    127.50045   0.42555313    127.92601            0            0   0.30860915    3.4307315    123.76111   0.86606951   0.83978974    20.772934    2521.5637 
   30800         30.8    127.50084   0.41576069     127.9166            0            0   0.30908709    3.4314593    123.76029   0.86599222   0.82046526   -26.126535    2521.7888 
   30900         30.9    127.50129   0.40648112    127.90777            0            0   0.30970114    3.4321047    123.75948   0.86601891    0.8021529   -2.6184077     2521.711 
   31000           31    127.50189   0.39771636     127.8996            0            0   0.31053842    3.4326656    123.75868    0.8660558   0.78485646    27.632811    2521.6037 
   31100         31.1    127.50256   0.38944721    127.89201            0            0   0.31153002    3.4331402    123.75789   0.86598301   0.76853805   -16.724143    2521.8156 
   31200         31.2    127.50329   0.38175075    127.88504            0            0   0.31265014    3.4335271    123.75711   0.86597694    0.7533498   -15.958025    2521.8333 
   31300         31.3    127.50404   0.37466079     127.8787            0            0   0.31387453    3.4338252    123.75634    0.8660341   0.73935841    27.575794    2521.6668 
   31400         31.4    127.50478   0.36815177    127.87293            0            0   0.31516537    3.4340336    123.75558   0.86598168   0.72651347   -3.4249661    2521.8195 
   31500         31.5    127.50552   0.36228343     127.8678            0            0   0.31653392    3.4341518    123.75483   0.86594315   0.71493284   -25.139059    2521.9317 
   31600         31.6    127.50613   0.35711774    127.86325            0            0    0.3178509    3.4341794     123.7541   0.86600441   0.70473883    20.753523    2521.7533 
   31700         31.7    127.50664   0.35263702    127.85928            0            0   0.31914938    3.4341163    123.75337   0.86598306   0.69589655    10.449072    2521.8154 
   31800         31.8    127.50703   0.34887969    127.85591            0            0   0.32041138    3.4339628    123.75266   0.86592043    0.6884818   -27.999557    2521.9978 
   31900         31.9    127.50716   0.34592604    127.85308            0            0   0.32147959    3.4337193    123.75196   0.86596905   0.68265305     8.960689    2521.8562 
   32000           32    127.50708   0.34377606    127.85086            0            0   0.32242805    3.4333865    123.75127   0.86598184   0.67841025    21.499512     2521.819 
   32100         32.1    127.50674   0.34244646    127.84918            0            0   0.32318469    3.4329653    123.75059   0.86590933   0.67578641   -23.956544    2522.0302 
   32200         32.2    127.50602   0.34202243    127.84805            0            0   0.32364777     3.432457    123.74992   0.86593208   0.67494962   -4.8316537    2521.9639 
   32300         32.3    127.50498   0.34252563    127.84751            0            0   0.32385716     3.431863    123.74926   0.86597378   0.67594265    27.077056    2521.8425 
   32400         32.4    127.50353   0.34395313    127.84749            0            0   0.32372952     3.431185    123.74862   0.86590787   0.67875968   -14.118269    2522.0344 
   32500         32.5    127.50165   0.34637965    127.84803            0            0   0.32324461    3.4304249    123.74798   0.86589817    0.6835482   -17.218391    2522.0627 
   32600         32.6     127.4993   0.34984609    127.84915            0            0   0.32235552    3.4295849    123.74736   0.86595665   0.69038889    25.911081    2521.8924 
   32700         32.7    127.49645   0.35433245    127.85079            0            0   0.32103862    3.4286677    123.74675   0.86591202   0.69924231  -0.98566148    2522.0223 
   32800         32.8    127.49314   0.35988673    127.85302            0            0    0.3193153    3.4276759    123.74615    0.8658714   0.71020317   -25.194297    2522.1407 
   32900         32.9    127.48924   0.36655943     127.8558            0            0   0.31707042    3.4266127    123.74556   0.86593069   0.72337113    18.394719     2521.968 
   33000           33    127.48483   0.37431498    127.85914            0            0   0.31437247    3.4254816    123.74497   0.86591664   0.73867599     12.17785    2522.0089 
   33100         33.1    127.47992   0.38315786    127.86308            0            0   0.31123021    3.4242861     123.7444   0.86585421   0.75612661   -26.877059    2522.1907 
   33200         33.2    127.47441   0.39313116    127.86754            0            0   0.30753609    3.4230306    123.74384   0.86589845   0.77580799    6.4626179    2522.0619 
   33300         33.3    127.46842   0.40418275     127.8726            0            0   0.30341251    3.4217195    123.74329   0.86591667   0.79761728    22.150857    2522.0088 
   33400         33.4    127.46195   0.41625765    127.87821            0            0    0.2988471    3.4203575    123.74275   0.86584679   0.82144598   -21.947031    2522.2123 
   33500         33.5    127.45497   0.42936792    127.88434            0            0   0.29381068    3.4189499    123.74221   0.86586402   0.84731787   -6.9025312    2522.1621 
   33600         33.6    127.44759   0.44344117    127.89103            0            0   0.28840225    3.4175023    123.74169   0.86590832   0.87509014    26.536126    2522.0331 
   33700         33.7    127.43983   0.45835119    127.89818            0            0   0.28263724    3.4160206    123.74117   0.86584699   0.90451368   -11.702136    2522.2117 
   33800         33.8    127.43175   0.47405234     127.9058            0            0   0.27657658     3.414511    123.74066   0.86583207   0.93549844   -18.409926    2522.2552 
   33900         33.9    127.42339   0.49044707    127.91383            0            0    0.2702449    3.4129804    123.74016   0.86588996   0.96785194    24.332035    2522.0866 
   34000           34    127.41485   0.50733609    127.92218            0            0   0.26374394    3.4114356    123.73967   0.86585087    1.0011809    1.2796935    2522.2004 
   34100         34.1    127.40625   0.52459409    127.93084            0            0   0.25717829     3.409884    123.73918    0.8658066    1.0352379   -25.264912    2522.3294 
   34200         34.2    127.39755   0.54209583    127.93965            0            0   0.25051363    3.4083331     123.7387   0.86586241     1.069776    16.158185    2522.1668 
   34300         34.3    127.38897   0.55958427    127.94855            0            0   0.24394277    3.4067906    123.73823   0.86585366    1.1042878    13.783844    2522.1923 
   34400         34.4    127.38059   0.57684851    127.95744            0            0   0.23755971    3.4052644    123.73777      0.86579    1.1383572   -25.842582    2522.3778 
   34500         34.5     127.3724     0.593741    127.96614            0            0   0.23133283    3.4037625    123.73731   0.86582877    1.1716929    4.0850864    2522.2648 
   34600         34.6    127.36462   0.60998438    127.97461            0            0   0.22547699    3.4022927    123.73685   0.86585093    1.2037478    22.749028    2522.2003 
   34700         34.7    127.35733   0.62530368    127.98264            0            0   0.22006325     3.400863    123.73641    0.8657825     1.233979   -20.069705    2522.3996 
   34800         34.8    127.35055     0.639547     127.9901            0            0   0.21511078    3.3994808    123.73596   0.86579362    1.2620869   -8.8862337    2522.3672 
   34900         34.9    127.34444   0.65247392    127.99691            0            0   0.21075724    3.3981537    123.73552   0.86583968    1.2875969    26.011358    2522.2331 
   35000           35    127.33906    0.6637979    128.00286            0            0   0.20708196    3.3968886    123.73509   0.86578214    1.3099438   -9.4260195    2522.4007 
   35100         35.1     127.3345   0.67339323    128.00789            0            0   0.20414555    3.3956918    123.73466    0.8657619    1.3288793   -19.565026    2522.4597 
   35200         35.2    127.33075   0.68111954    128.01187            0            0   0.20194965    3.3945695    123.73423   0.86581907    1.3441264    22.822863    2522.2931 
   35300         35.3    127.32795   0.68675099     128.0147            0            0   0.20061068    3.3935267    123.73381   0.86578529    1.3552396    3.4315192    2522.3915 
   35400         35.4    127.32613   0.69022235    128.01635            0            0   0.20017487     3.392568    123.73339   0.86573774      1.36209    -25.35047      2522.53 
   35500         35.5    127.32519   0.69153879    128.01673            0            0   0.20052769    3.3916971    123.73297   0.86579066    1.3646878      14.0209    2522.3759 
   35600         35.6    127.32527   0.69060093    128.01587            0            0   0.20180184    3.3909168    123.73255   0.86578759    1.3628371    15.327139    2522.3848 
   35700         35.7    127.32634   0.68742648    128.01377            0            0   0.20398068    3.3902291    123.73213   0.86572348    1.3565726   -24.860924    2522.5716 
   35800         35.8    127.32826   0.68217135    128.01043            0            0    0.2069073    3.3896352    123.73171   0.86575797    1.3462021    1.8104055    2522.4711 
   35900         35.9    127.33109   0.67489279    128.00599            0            0   0.21066042    3.3891353     123.7313     0.865785    1.3318385    23.345356    2522.3923 
   36000           36    127.33477   0.66568922    128.00046            0            0   0.21516502    3.3887286    123.73088   0.86571913    1.3136761   -18.261431    2522.5843 
   36100         36.1    127.33916   0.65482566    127.99399            0            0   0.22028694    3.3884138    123.73046   0.86572569    1.2922379   -10.784945    2522.5652 
   36200         36.2    127.34421   0.64249709    127.98671            0            0    0.2259831    3.3881888    123.73004   0.86577487    1.2679086    25.540828    2522.4219 
   36300         36.3    127.34984   0.62885594    127.97869            0            0   0.23217285    3.3880505    123.72961   0.86572242     1.240989   -7.2123352    2522.5747 
   36400         36.4    127.35594   0.61420492    127.97015            0            0   0.23875704    3.3879955    123.72919   0.86569853    1.2120766   -20.666757    2522.6443 
   36500         36.5    127.36234   0.59882005    127.96116            0            0   0.24556441    3.3880199    123.72876   0.86575658     1.181716    21.407048    2522.4751 
   36600         36.6      127.369   0.58287074    127.95187            0            0   0.25255984    3.3881192    123.72832   0.86572943    1.1502415    5.5457379    2522.5543 
   36700         36.7    127.37582   0.56662678    127.94245            0            0   0.25964881    3.3882886    123.72788   0.86568016    1.1181855      -25.419    2522.6978 
   36800         36.8    127.38256   0.55037789    127.93294            0            0   0.26660012    3.3885231    123.72744   0.86573178    1.0861199    11.991635    2522.5474 
   36900         36.9    127.38923   0.53427987    127.92351            0            0   0.27342577    3.3888176    123.72699   0.86573561    1.0543519    16.867344    2522.5362 
   37000           37    127.39571   0.51852472    127.91424            0            0   0.28001256    3.3891666    123.72653   0.86567237    1.0232606   -23.894358    2522.7205 
   37100         37.1     127.4018   0.50336192    127.90516            0            0   0.28616595    3.3895651    123.72607   0.86570399    0.9933382   -0.3675697    2522.6284 
   37200         37.2     127.4075   0.48891776    127.89642            0            0   0.29189626    3.3900076     123.7256   0.86573698   0.96483398    23.972568    2522.5323 
   37300         37.3     127.4127   0.47529406      127.888            0            0    0.2970934     3.390489    123.72512   0.86567466   0.93794886   -16.488741    2522.7139 
   37400         37.4     127.4173   0.46266949    127.87997            0            0   0.30165784    3.3910043    123.72464   0.86567782   0.91303545   -12.619326    2522.7046 
   37500         37.5    127.42124   0.45113749    127.87237            0            0   0.30554649    3.3915487    123.72414   0.86573107   0.89027811    25.124837    2522.5495 
   37600         37.6    127.42446   0.44072125    127.86519            0            0   0.30870782    3.3921173    123.72364   0.86568446   0.86972263   -5.0390508    2522.6853 
   37700         37.7    127.42696   0.43151901    127.85848            0            0   0.31112622     3.392706    123.72313   0.86565786   0.85156286   -21.747168    2522.7628 
   37800         37.8    127.42862   0.42359362    127.85221            0            0   0.31270265    3.3933103    123.72261   0.86571765   0.83592284    20.052179    2522.5886 
   37900         37.9    127.42949   0.41691192     127.8464            0            0   0.31348273    3.3939265    123.72208   0.86569776   0.82273712    7.6294597    2522.6465 
   38000           38    127.42957    0.4114952    127.84107            0            0   0.31348252    3.3945508    123.72154   0.86564757   0.81204771   -25.506718    2522.7928 
   38100         38.1    127.42877   0.40737789    127.83615            0            0   0.31260204    3.3951799    123.72099   0.86569875    0.8039226    10.010607    2522.6437 
   38200         38.2    127.42721   0.40449326     127.8317            0            0   0.31096461    3.3958104    123.72044   0.86571018   0.79823003    18.395496    2522.6103 
   38300         38.3    127.42489   0.40279532    127.82769            0            0   0.30858307    3.3964396    123.71987   0.86564856   0.79487931   -22.973354    2522.7899 
   38400         38.4    127.42179   0.40228957    127.82407            0            0   0.30542529    3.3970648     123.7193   0.86567825   0.79388126   -2.5248609    2522.7034 
   38500         38.5    127.41802   0.40289388    127.82091            0            0   0.30162344    3.3976834    123.71871   0.86571804   0.79507381    24.605343    2522.5874 
   38600         38.6    127.41362   0.40450736    127.81812            0            0   0.29720378    3.3982933    123.71812   0.86566013   0.79825787   -14.767772    2522.7562 
   38700         38.7    127.40864   0.40710329    127.81574            0            0   0.29222772    3.3988924    123.71752   0.86566095   0.80338069   -14.466003    2522.7538 
   38800         38.8    127.40316   0.41059688    127.81376            0            0   0.28677132     3.399479    123.71691   0.86571934   0.81027497     24.72241    2522.5836 
   38900         38.9    127.39726   0.41484677    127.81211            0            0   0.28092088    3.4000514    123.71629    0.8656796   0.81866174   -2.9049265    2522.6995 
   39000           39    127.39107   0.41979017    127.81086            0            0    0.2747954    3.4006082    123.71567   0.86565146   0.82841708   -22.866788    2522.7815 
   39100         39.1    127.38459   0.42534768    127.80994            0            0   0.26840406     3.401148    123.71504   0.86571429   0.83938431    18.704844    2522.5984 
   39200         39.2    127.37798   0.43135527    127.80934            0            0   0.26191431    3.4016697     123.7144   0.86570293   0.85123973    9.6971724    2522.6315 
   39300         39.3    127.37137   0.43771305    127.80908            0            0   0.25544018    3.4021722    123.71376   0.86565311   0.86378623   -25.644977    2522.7767 
   39400         39.4    127.36474   0.44435172    127.80909            0            0   0.24897016    3.4026548    123.71311   0.86570529   0.87688703    8.0190442    2522.6246 
   39500         39.5    127.35829   0.45110663     127.8094            0            0   0.24271157    3.4031166    123.71246   0.86572578   0.89021722    19.930083    2522.5649 
   39600         39.6    127.35211   0.45784641    127.80995            0            0   0.23674004    3.4035569    123.71181   0.86566717   0.90351755   -22.094542    2522.7357 
   39700         39.7    127.34621   0.46451447    127.81072            0            0   0.23107921    3.4039752    123.71115   0.86569643   0.91667635   -4.7150686    2522.6504 
   39800         39.8    127.34076   0.47097062    127.81173            0            0   0.22589148    3.4043708     123.7105   0.86574461   0.92941697    25.256298      2522.51 
   39900         39.9    127.33582   0.47706677    127.81288            0            0   0.22123388    3.4047434    123.70984   0.86569256   0.94144714   -13.063768    2522.6617 
   40000           40    127.33145   0.48276049    127.81421            0            0     0.217177    3.4050927    123.70918   0.86569248   0.95268317   -16.361859    2522.6619 
   40100         40.1    127.32772   0.48796006    127.81568            0            0   0.21377076    3.4054182    123.70853   0.86575759   0.96294404    24.334211    2522.4722 
   40200         40.2    127.32469   0.49252387    127.81722            0            0   0.21109659    3.4057196    123.70788   0.86572615   0.97195031  -0.75440941    2522.5638 
   40300         40.3    127.32246   0.49642451    127.81888            0            0   0.20922911    3.4059967    123.70723   0.86569775   0.97964787   -24.036695    2522.6466 
   40400         40.4    127.32095   0.49963559    127.82058            0            0   0.20810489    3.4062493    123.70659     0.865765   0.98598462    17.353738    2522.4506 
   40500         40.5    127.32028   0.50204897    127.82233            0            0   0.20784124    3.4064772    123.70596   0.86576347    0.9907472    11.811086    2522.4551 
   40600         40.6    127.32047   0.50365262    127.82413            0            0   0.20846018    3.4066802    123.70533   0.86571503   0.99391186   -25.815413    2522.5962 
   40700         40.7    127.32142   0.50448954    127.82591            0            0   0.20984612    3.4068581    123.70472   0.86576924   0.99556345    5.9991219    2522.4383 
   40800         40.8    127.32323   0.50450843    127.82774            0            0   0.21210545    3.4070108    123.70411   0.86579979   0.99560072    21.526423    2522.3493 
   40900         40.9    127.32585   0.50371244    127.82956            0            0   0.21519179    3.4071382    123.70352   0.86574484   0.99402992   -21.213247    2522.5094 
   41000           41    127.32919   0.50220309    127.83139            0            0   0.21900606    3.4072402    123.70294   0.86577417   0.99105134   -6.9543742    2522.4239 
   41100         41.1    127.33327   0.49999825    127.83326            0            0   0.22356904    3.4073167    123.70238   0.86583129   0.98670031    25.964056    2522.2575 
   41200         41.2    127.33801   0.49711557    127.83512            0            0   0.22880696    3.4073677    123.70183   0.86578529    0.9810116   -11.314877    2522.3915 
   41300         41.3    127.34335   0.49369189    127.83705            0            0     0.234659    3.4073931     123.7013   0.86578416   0.97425528   -18.313974    2522.3948 
   41400         41.4     127.3492   0.48981197    127.83901            0            0    0.2410203    3.4073929    123.70079    0.8658559   0.96659861     23.97754    2522.1858 
   41500         41.5    127.35551   0.48550679    127.84102            0            0   0.24784955    3.4073673     123.7003   0.86583244   0.95810274    1.4788069    2522.2542 
   41600         41.6    127.36223   0.48091991    127.84315            0            0   0.25509255    3.4073163    123.69983   0.86580295   0.94905097    -25.25071    2522.3401 
   41700         41.7    127.36917   0.47618693    127.84536            0            0   0.26255289    3.4072402    123.69938    0.8658738   0.93971086    15.995131    2522.1337 
   41800         41.8    127.37633   0.47135101    127.84768            0            0   0.27024304    3.4071391    123.69895   0.86588117   0.93016761    14.028691    2522.1122 
   41900         41.9    127.38364   0.46653613    127.85017            0            0   0.27807551    3.4070133    123.69855   0.86583264    0.9206659   -25.998671    2522.2536 
   42000           42    127.39088   0.46190378    127.85279            0            0   0.28584975    3.4068635    123.69817    0.8658873   0.91152439    3.9300665    2522.0944 
   42100         42.1     127.3981   0.45750805    127.85561            0            0   0.29359211      3.40669    123.69782   0.86592641   0.90284981    23.222077    2521.9804 
   42200         42.2    127.40517   0.45343523    127.85861            0            0   0.30118582    3.4064934    123.69749   0.86587308   0.89481248   -20.300656    2522.1357 
   42300         42.3    127.41197   0.44984491    127.86181            0            0   0.30850218    3.4062746    123.69719    0.8659002   0.88772733   -9.2742652    2522.0568 
   42400         42.4    127.41847   0.44680005    127.86527            0            0   0.31551575    3.4060345    123.69692    0.8659642   0.88171858    26.739078    2521.8704 
   42500         42.5    127.42459   0.44434153    127.86894            0            0   0.32213596    3.4057741    123.69668   0.86592182    0.8768669   -9.4888307    2521.9938 
   42600         42.6    127.43029    0.4426012    127.87289            0            0   0.32831855    3.4054945    123.69647   0.86591683   0.87343253   -20.356917    2522.0083 
   42700         42.7    127.43545   0.44164692    127.87709            0            0   0.33395745    3.4051972    123.69629   0.86599266   0.87154935    23.633451    2521.7875 
   42800         42.8    127.44008   0.44147562    127.88155            0            0   0.33904883    3.4048837    123.69614   0.86597451    0.8712113    3.8234125    2521.8404 
   42900         42.9    127.44417   0.44217038    127.88634            0            0   0.34358775    3.4045556    123.69603   0.86594079   0.87258235   -26.538461    2521.9386 
   43000           43    127.44759   0.44379669    127.89138            0            0   0.34742814    3.4042149    123.69594   0.86601235   0.87579172    14.583606    2521.7302 
   43100         43.1    127.45041   0.44631529    127.89673            0            0   0.35066015    3.4038637    123.69589   0.86602591   0.88076195    16.367935    2521.6907 
   43200         43.2    127.45265   0.44974559    127.90239            0            0    0.3532713    3.4035042    123.69587   0.86597405   0.88753133   -26.212312    2521.8417 
   43300         43.3    127.45418    0.4541392    127.90832            0            0   0.35515699    3.4031389    123.69589   0.86602604   0.89620171     1.748113    2521.6903 
   43400         43.4    127.45515   0.45943154    127.91458            0            0   0.35644031    3.4027704    123.69594   0.86607103   0.90664566     25.01782    2521.5593 
   43500         43.5    127.45553   0.46557078     127.9211            0            0   0.35710538    3.4024017    123.69602   0.86601628   0.91876087   -19.357876    2521.7187 
   43600         43.6    127.45532   0.47257935     127.9279            0            0   0.35714529    3.4020356    123.69614     0.866038   0.93259164   -11.744387    2521.6555 
[...]
   38800         87.8    250.75796    157.98464     408.7426            0            0    25.092182    95.930444    129.73534    1.0274557    311.76807    10180.473    2125.4925 
   38900         87.9    250.40583    158.21351    408.61933            0            0    24.854519    95.766209     129.7851    1.0276322    312.21972    10102.313    2125.1276 
   39000           88    250.03449    158.42686    408.46135            0            0     24.59828    95.600813     129.8354    1.0278143    312.64075    10014.054    2124.7511 
   39100         88.1    249.64705    158.62122    408.26827            0            0    24.326293    95.434518    129.88624    1.0280026     313.0243    9915.8503    2124.3617 
   39200         88.2    249.24683    158.79332    408.04015            0            0    24.041635    95.267581    129.93761    1.0281979    313.36394      9807.89    2123.9583 
   39300         88.3    248.83732    158.94018    407.77751            0            0    23.747578    95.100245     129.9895    1.0284006    313.65375     9690.393    2123.5396 
   39400         88.4    248.42219    159.05913    407.48131            0            0    23.447539    94.932746     130.0419    1.0286113    313.88847    9563.6114    2123.1046 
   39500         88.5    248.00514    159.14784    407.15298            0            0    23.145027    94.765308    130.09481    1.0288305    314.06354    9427.8283    2122.6523 
   39600         88.6    247.58994     159.2044    406.79434            0            0    22.843588    94.598145    130.14821    1.0290586    314.17516    9283.3579    2122.1818 
   39700         88.7     247.1803    159.22732    406.40761            0            0    22.546747    94.431457    130.20209    1.0292961    314.22038     9130.544    2121.6921 
   39800         88.8    246.77984    159.21551    405.99535            0            0    22.257957    94.265433    130.25645    1.0295433    314.19708    8969.7591    2121.1827 
   39900         88.9    246.39207    159.16834    405.56041            0            0     21.98054     94.10025    130.31128    1.0298006      314.104    8801.4031    2120.6527 
   40000           89    246.02028     159.0856    405.10588            0            0    21.717644    93.936072    130.36656    1.0300683    313.94073    8625.9021    2120.1016 
   40100         89.1    245.66753    158.96751    404.63504            0            0    21.472188    93.773053    130.42229    1.0303466    313.70768    8443.7064     2119.529 
   40200         89.2    245.33661    158.81469     404.1513            0            0    21.246822    93.611333    130.47845    1.0306357    313.40609    8255.2894    2118.9344 
   40300         89.3    245.02997    158.62815    403.65812            0            0    21.043891    93.451042    130.53504    1.0309358    313.03798    8061.1454    2118.3176 
   40400         89.4    244.74974    158.40928    403.15902            0            0    20.865399    93.292298    130.59204    1.0312471    312.60607    7861.7882    2117.6782 
   40500         89.5    244.49764    158.15984    402.65748            0            0    20.712982    93.135209    130.64945    1.0315696    312.11382    7657.7489    2117.0162 
   40600         89.6    244.27501     157.8819    402.15691            0            0     20.58789    92.979873    130.70724    1.0319033    311.56533    7449.5744    2116.3315 
   40700         89.7    244.08277    157.57785    401.66062            0            0    20.490969    92.826378    130.76543    1.0322483    310.96531    7237.8251    2115.6243 
   40800         89.8    243.92144    157.25036     401.1718            0            0    20.422657    92.674805    130.82398    1.0326045    310.31904    7023.0732    2114.8945 
   40900         89.9     243.7911    156.90237    400.69347            0            0    20.382978    92.525225     130.8829    1.0329718    309.63231    6805.9005    2114.1423 
   41000           90    243.69142    156.53704    400.22847            0            0     20.37155    92.377701    130.94217    1.0333502    308.91138    6586.8968    2113.3682 
   41100         90.1    243.62168    156.15777    399.77945            0            0    20.387597     92.23229    131.00179    1.0337395    308.16292     6366.657    2112.5723 
   41200         90.2    243.58075     155.7681    399.34884            0            0    20.429962    92.089042    131.06174    1.0341395    307.39393    6145.7799    2111.7552 
   41300         90.3    243.56715    155.37171    398.93886            0            0    20.497134    91.948001    131.12202      1.03455     306.6117    5924.8654    2110.9173 
   41400         90.4    243.57909    154.97241     398.5515            0            0    20.587273    91.809203    131.18261    1.0349707    305.82372    5704.5126    2110.0591 
   41500         90.5    243.61443    154.57404    398.18847            0            0    20.698241    91.672681    131.24351    1.0354015    305.03758    5485.3174    2109.1813 
   41600         90.6    243.67081    154.18048    397.85129            0            0    20.827644    91.538461     131.3047    1.0358419    304.26092    5267.8705    2108.2845 
   41700         90.7    243.74561    153.79556    397.54117            0            0    20.972863    91.406565    131.36618    1.0362917    303.50132     5052.755    2107.3693 
   41800         90.8    243.83605    153.42303    397.25908            0            0    21.131106    91.277009    131.42794    1.0367506    302.76616    4840.5439    2106.4366 
   41900         90.9    243.93921    153.06651    397.00572            0            0    21.299442    91.149804    131.48996    1.0372181     302.0626    4631.7985    2105.4871 
   42000           91    244.05206    152.72943    396.78148            0            0    21.474857    91.024957    131.55224     1.037694     301.3974    4427.0655    2104.5216 
   42100         91.1    244.17153    152.41497     396.5865            0            0    21.654294    90.902471    131.61477    1.0381778    300.77684    4226.8754     2103.541 
   42200         91.2    244.29457    152.12604    396.42061            0            0    21.834702    90.782342    131.67753    1.0386691    300.20666    4031.7401     2102.546 
   42300         91.3    244.41816    151.86518    396.28334            0            0    22.013081    90.664564    131.74051    1.0391675    299.69189    3842.1511    2101.5376 
   42400         91.4    244.53936    151.63458    396.17394            0            0    22.186526    90.549124    131.80371    1.0396726    299.23682    3658.5773    2100.5166 
   42500         91.5    244.65538    151.43597    396.09136            0            0    22.352274    90.436006     131.8671     1.040184    298.84489    3481.4636    2099.4839 
   42600         91.6    244.76361    151.27065    396.03426            0            0    22.507737    90.325186    131.93068    1.0407012    298.51864    3311.2289    2098.4404 
   42700         91.7    244.86162    151.13942    396.00103            0            0    22.650544    90.216639    131.99443    1.0412239    298.25966     3148.265    2097.3869 
   42800         91.8    244.94725    151.04256    395.98981            0            0    22.778575    90.110331    132.05834    1.0417517    298.06852    2992.9345    2096.3244 
   42900         91.9    245.01861    150.97988    395.99848            0            0    22.889986    90.006224     132.1224     1.042284    297.94483    2845.5704    2095.2537 
   43000           92    245.07408    150.95065    396.02473            0            0    22.983237    89.904272    132.18657    1.0428206    297.88714    2706.4743    2094.1757 
   43100         92.1     245.1124    150.95365    396.06605            0            0    23.057113    89.804427    132.25086    1.0433609    297.89307     2575.916    2093.0911 
   43200         92.2    245.13259     150.9872    396.11979            0            0    23.110735    89.706629    132.31523    1.0439047    297.95927    2454.1322    2092.0008 
   43300         92.3    245.13406    151.04915     396.1832            0            0    23.143572    89.610815    132.37967    1.0444515    298.08152    2341.3262    2090.9057 
   43400         92.4    245.11652    151.13696    396.25348            0            0    23.155447    89.516912    132.44416    1.0450009    298.25481    2237.6675    2089.8063 
   43500         92.5    245.08005    151.24774    396.32779            0            0    23.146532    89.424841    132.50867    1.0455526    298.47343    2143.2909    2088.7036 
   43600         92.6    245.02505    151.37829    396.40334            0            0    23.117344    89.334514    132.57319    1.0461062    298.73105     2058.297    2087.5983 
   43700         92.7    244.95226    151.52517    396.47743            0            0    23.068729    89.245836    132.63769    1.0466613    299.02091    1982.7515     2086.491 
   43800         92.8    244.86269    151.68478    396.54747            0            0    23.001851    89.158702    132.70214    1.0472177    299.33588    1916.6857    2085.3825 
   43900         92.9    244.75768    151.85339    396.61107            0            0    22.918163    89.072998    132.76652    1.0477749    299.66862    1860.0965    2084.2734 
   44000           93    244.63878    152.02726    396.66604            0            0    22.819384    88.988604     132.8308    1.0483327    300.01173    1812.9468    2083.1644 
   44100         93.1     244.5078    152.20265    396.71045            0            0    22.707467    88.905389    132.89494    1.0488908    300.35786    1775.1661    2082.0562 
   44200         93.2    244.36672    152.37596    396.74267            0            0    22.584566    88.823214    132.95893    1.0494487    300.69986     1746.651    2080.9492 
   44300         93.3    244.21767    152.54371    396.76138            0            0    22.452997    88.741933    133.02274    1.0500063     301.0309    1727.2659    2079.8442 
   44400         93.4    244.06291    152.70267    396.76559            0            0    22.315198     88.66139    133.08632    1.0505631     301.3446    1716.8443    2078.7417 
   44500         93.5    243.90478    152.84989    396.75467            0            0    22.173691    88.581425    133.14966    1.0511191    301.63513    1715.1895    2077.6423 
   44600         93.6    243.74563    152.98275    396.72837            0            0    22.031039    88.501869    133.21272    1.0516737     301.8973     1722.076    2076.5466 
   44700         93.7    243.58782    153.09897    396.68679            0            0    21.889805    88.422548    133.27546    1.0522268    302.12666    1737.2505     2075.455 
   44800         93.8    243.43366    153.19671    396.63037            0            0    21.752507    88.343285    133.33787    1.0527781    302.31954    1760.4339    2074.3682 
   44900         93.9    243.28538    153.27455    396.55993            0            0    21.621585    88.263896     133.3999    1.0533274    302.47314    1791.3222    2073.2866 
   45000           94    243.14508    153.33149    396.47657            0            0    21.499361    88.184199    133.46152    1.0538742    302.58552    1829.5885    2072.2107 
   45100         94.1    243.01472    153.36701    396.38174            0            0    21.388003    88.104007    133.52271    1.0544185    302.65562    1874.8845     2071.141 
   45200         94.2    242.89606    153.38103    396.27709            0            0    21.289497    88.023136    133.58343      1.05496    302.68327    1926.8421     2070.078 
   45300         94.3    242.79068    153.37388    396.16456            0            0    21.205617    87.941404    133.64366    1.0554984    302.66917    1985.0758    2069.0221 
   45400         94.4    242.69989    153.34633    396.04622            0            0    21.137905    87.858631    133.70335    1.0560334     302.6148    2049.1836    2067.9738 
   45500         94.5    242.62479    153.29953    395.92432            0            0     21.08765    87.774644     133.7625     1.056565    302.52245    2118.7495    2066.9334 
   45600         94.6     242.5662    153.23498    395.80119            0            0    21.055876    87.689275    133.82105    1.0570927    302.39507    2193.3451    2065.9015 
   45700         94.7     242.5247    153.15449    395.67919            0            0    21.043333    87.602365      133.879    1.0576166    302.23622    2272.5313    2064.8782 
   45800         94.8    242.50057    153.06012     395.5607            0            0    21.050492    87.513767    133.93631    1.0581363       302.05    2355.8607    2063.8641 
   45900         94.9    242.49385    152.95418    395.44803            0            0    21.077547    87.423344    133.99296    1.0586517    301.84092    2442.8784    2062.8593 
   46000           95    242.50432    152.83911    395.34342            0            0     21.12442    87.330973    134.04892    1.0591626    301.61384     2533.125    2061.8643 
   46100         95.1    242.53149    152.71748    395.24897            0            0    21.190771    87.236547    134.10418    1.0596689    301.37382    2626.1373    2060.8791 
   46200         95.2    242.57468    152.59193    395.16661            0            0     21.27601    87.139974     134.1587    1.0601705    301.12606    2721.4508    2059.9041 
   46300         95.3    242.63296     152.4651    395.09807            0            0    21.379317    87.041182    134.21246    1.0606672    300.87578     2818.601    2058.9394 
   46400         95.4    242.70524     152.3396    395.04484            0            0     21.49966    86.940118    134.26546     1.061159    300.62812    2917.1253    2057.9851 
   46500         95.5    242.79023    152.21796    395.00819            0            0     21.63582    86.836749    134.31766    1.0616458    300.38806    3016.5646    2057.0414 
   46600         95.6    242.88653    152.10256    394.98909            0            0    21.786414    86.731064    134.36905    1.0621277    300.16034    3116.4648    2056.1083 
   46700         95.7    242.99262    151.99565    394.98827            0            0    21.949927    86.623076    134.41962    1.0626044    299.94935    3216.3787    2055.1857 
   46800         95.8     243.1069    151.89925    395.00615            0            0    22.124733    86.512821    134.46935    1.0630762    299.75911    3315.8671    2054.2738 
   46900         95.9    243.22771    151.81515    395.04286            0            0    22.309131    86.400359    134.51822    1.0635429    299.59315    3414.5008    2053.3722 
   47000           96    243.35337    151.74489    395.09826            0            0    22.501369    86.285776    134.56622    1.0640047    299.45451    3511.8616     2052.481 
   47100         96.1     243.4822    151.68973    395.17193            0            0    22.699677    86.169184    134.61334    1.0644616    299.34566    3607.5444       2051.6 
   47200         96.2    243.61258    151.65062     395.2632            0            0    22.902288    86.050718    134.65957    1.0649138    299.26848    3701.1579    2050.7288 
   47300         96.3    243.74292    151.62821    395.37113            0            0    23.107473    85.930543     134.7049    1.0653614    299.22426    3792.3265    2049.8672 
   47400         96.4    243.87172    151.62284    395.49456            0            0    23.313559    85.808846    134.74932    1.0658046    299.21364    3880.6915    2049.0149 
   47500         96.5    243.99761    151.63451    395.63212            0            0    23.518952    85.685842    134.79282    1.0662435    299.23668    3965.9125    2048.1714 
   47600         96.6    244.11933    151.66294    395.78226            0            0     23.72216    85.561769     134.8354    1.0666784    299.29278    4047.6685    2047.3364 
   47700         96.7    244.23574    151.70754    395.94329            0            0    23.921809     85.43689    134.87705    1.0671094     299.3808     4125.659    2046.5094 
   47800         96.8    244.34591    151.76744    396.11335            0            0    24.116655    85.311491    134.91776     1.067537    299.49901    4199.6059    2045.6898 
   47900         96.9    244.44902    151.84151    396.29053            0            0    24.305598    85.185882    134.95754    1.0679612    299.64518    4269.2535    2044.8771 
   48000           97    244.54446    151.92838    396.47284            0            0    24.487687    85.060392    134.99638    1.0683826    299.81661    4334.3706    2044.0707 
   48100         97.1    244.63178    152.02648    396.65826            0            0    24.662127    84.935372    135.03428    1.0688013    300.01019    4394.7505    2043.2699 
   48200         97.2    244.71071    152.13405    396.84476            0            0    24.828277     84.81119    135.07125    1.0692177    300.22247    4450.2125    2042.4741 
   48300         97.3    244.78116     152.2492    397.03036            0            0    24.985651     84.68823    135.10728    1.0696322    300.44972    4500.6021    2041.6827 
   48400         97.4    244.84318    152.36995    397.21313            0            0    25.133912    84.566893    135.14237    1.0700451    300.68801     4545.792    2040.8948 
   48500         97.5    244.89699    152.49424    397.39124            0            0    25.272863    84.447592    135.17654    1.0704568    300.93328    4585.6824    2040.1098 
   48600         97.6    244.94297       152.62    397.56297            0            0    25.402441    84.330751    135.20978    1.0708678    301.18145    4620.2009    2039.3269 
   48700         97.7    244.98161    152.74515    397.72676            0            0    25.522698    84.216802    135.24211    1.0712784    301.42843    4649.3031    2038.5453 
   48800         97.8     245.0135     152.8677     397.8812            0            0    25.633793    84.106186    135.27352    1.0716889    301.67026    4672.9725    2037.7644 
   48900         97.9    245.03935    152.98571    398.02507            0            0    25.735973    83.999346    135.30404    1.0720999    301.90315    4691.2198    2036.9833 
   49000           98    245.05995     153.0974    398.15735            0            0    25.829557     83.89673    135.33366    1.0725116    302.12356    4704.0831    2036.2012 
Loop time of 8.04517 on 1 procs for 49000 steps with 171 atoms

Performance: 0.526 ns/day, 45.608 hours/ns, 6090.614 timesteps/s
84.3% CPU use with 1 MPI tasks x 1 OpenMP threads

MPI task timing breakdown:
Section |  min time  |  avg time  |  max time  |%varavg| %total
---------------------------------------------------------------
Pair    | 0.33547    | 0.33547    | 0.33547    |   0.0 |  4.17
Bond    | 3.8689     | 3.8689     | 3.8689     |   0.0 | 48.09
Neigh   | 0          | 0          | 0          |   0.0 |  0.00
Comm    | 0.58779    | 0.58779    | 0.58779    |   0.0 |  7.31
Output  | 0.021956   | 0.021956   | 0.021956   |   0.0 |  0.27
Modify  | 3.1197     | 3.1197     | 3.1197     |   0.0 | 38.78
Other   |            | 0.1114     |            |       |  1.38

Nlocal:        171.000 ave         171 max         171 min
Histogram: 1 0 0 0 0 0 0 0 0 0
Nghost:        1221.00 ave        1221 max        1221 min
Histogram: 1 0 0 0 0 0 0 0 0 0
Neighs:        133.000 ave         133 max         133 min
Histogram: 1 0 0 0 0 0 0 0 0 0

Total # of neighbors = 133
Ave neighs/atom = 0.77777778
Ave special neighs/atom = 11.824561
Neighbor list builds = 7
Dangerous builds = 0
#run                             10000000

write_data   sistema_comprimido.data
System init for write_data ...
Total wall time: 0:00:15
