LAMMPS data file via write_data, version 29 Oct 2020, timestep = 49000

171 atoms
10 atom types
178 bonds
16 bond types
329 angles
37 angle types
472 dihedrals
61 dihedral types

18.531791360430745 36.33453396988077 xlo xhi
2.2593593829530443 13.699482400949183 ylo yhi
8.904712391555329 18.902481213601966 zlo zhi

Masses

1 12.0107
2 12.0107
3 12.0107
4 12.0107
5 15.9994
6 15.9994
7 1.008
8 15.9994
9 1.008
10 1.008

Pair Coeffs # lj/cut/coul/cut

1 0.032 3.564
2 0.032 3.564
3 0.032 3.564
4 0.032 3.564
5 0.192 3.145
6 0.1 2.94
7 0.046 0.4
8 0.1 2.94
9 0.045 2.388
10 0.035 2.388

Bond Coeffs # harmonic

1 360 1.425
2 360 1.395
3 309 1.11
4 222.5 1.48
5 410 1.41
6 309 1.11
7 222.5 1.48
8 222.5 1.5
9 360 1.425
10 309 1.11
11 222.5 1.49
12 428 1.42
13 309 1.11
14 545 0.96
15 360 1.415
16 428 1.4

Angle Coeffs # harmonic

1 90 112
2 45 109.5
3 45 106
4 45 109.5
5 45 105
6 34.5 110.1
7 55 108.9
8 75.7 110.1
9 75.7 110.1
10 34.5 110.1
11 34.5 110.1
12 53.4 111
13 53.4 111
14 75.7 110.1
15 34.5 110.1
16 53.4 111
17 45 109.5
18 45 110
19 45 109
20 34.5 110.1
21 34.5 110.1
22 58.4 113.5
23 55 108.9
24 75.7 110.1
25 35.5 109
26 33.4 110.1
27 50 109
28 95 109.7
29 50 109
30 50 109.2
31 60 109.5
32 45 109.5
33 90 112
34 45 116.5
35 55 108.9
36 75.7 107
37 50 109

Dihedral Coeffs # fourier

1 1 0.41 1 180
2 3 0 1 0 0 2 0 0.284 3 0
3 3 0 1 0 0 2 0 0.2 3 0
4 1 0.05 1 180
5 3 0 1 0 0 2 0 0.284 3 0
6 3 0 1 0 0 2 0 1.6 3 0
7 1 2.75 1 180
8 3 0 1 0 0 2 0 0.2 3 0
9 3 2.65 1 180 0 2 0 0.13 3 180
10 3 0 1 0 0 2 0 0.2 3 0
11 3 0 1 0 0 2 0 0.2 3 0
12 3 0 1 0 0 2 0 0.14 3 0
13 3 0 1 0 0 2 0 0.2 3 0
14 3 0 1 0 0 2 0 0.2 3 0
15 3 0 1 0 0 2 0 0.18 3 0
16 3 0 1 0 0 2 0 0.2 3 0
17 3 0 1 0 0 2 0 0.2 3 0
18 3 0 1 0 0 2 0 0.19 3 180
19 3 0 1 0 0 2 0 0.2 3 0
20 3 0 1 0 0 2 0 0.2 3 0
21 3 0 1 0 0 2 0 0.2 3 0
22 3 0 1 0 0 2 0 0.2 3 0
23 3 0 1 0 0 2 0 0.19 3 180
24 3 0 1 0 0 2 0 0.2 3 0
25 3 0 1 0 0 2 0 0.2 3 0
26 3 0.29 1 0 0.62 2 0 0.05 3 0
27 3 0 1 0 0 2 0 0.31 3 180
28 3 0 1 0 0 2 0 0.2 3 0
29 3 0 1 0 0 2 0 0.2 3 0
30 3 1.36 1 180 0.16 2 0 1.01 3 0
31 3 0 1 0 0 2 0 0.2 3 0
32 3 0 1 0 0 2 0 0.2 3 0
33 3 0 1 0 0 2 0 0.2 3 0
34 3 0 1 0 0 2 0 0.2 3 0
35 3 0 1 0 0 2 0 0.2 3 0
36 3 0 1 0 0 2 0 0.2 3 0
37 3 0 1 0 0 2 0 0.284 3 0
38 3 0 1 0 0 2 0 0.2 3 0
39 3 0 1 0 0 2 0 0.2 3 0
40 3 0 1 0 0 2 0 0.2 3 0
41 3 0.75 1 180 0.17 2 0 0.25 3 180
42 3 0 1 0 0 2 0 0.2 3 0
43 3 0 1 0 0 2 0 0.14 3 0
44 3 0 1 0 0 2 0 0.2 3 0
45 3 0.29 1 0 0.62 2 0 0.05 3 0
46 3 0 1 0 0 2 0 0.18 3 0
47 3 0 1 0 0 2 0 0.284 3 0
48 3 0.13 1 180 0.25 2 180 0.06 3 180
49 3 0 1 0 0 2 0 0.2 3 0
50 3 2.65 1 180 0 2 0 0.13 3 180
51 3 0 1 0 0 2 0 0.2 3 0
52 3 1.36 1 180 0.16 2 0 1.01 3 0
53 3 0 1 0 0 2 0 0.2 3 0
54 3 0 1 0 0 2 0 0.2 3 0
55 3 0.41 1 180 0.89 2 0 0.05 3 0
56 3 1.55 1 0 1.17 2 0 1.07 3 0
57 3 0 1 0 0 2 0 0.18 3 0
58 3 0.29 1 0 0.62 2 0 0.05 3 0
59 3 2.65 1 180 0 2 0 0.13 3 180
60 3 0 1 0 0 2 0 0.14 3 0
61 3 0 1 0 0 2 0 0.2 3 0

Atoms # full

6 1 5 -0.65 19.812458284064448 4.203495813438303 9.124661420766978 0 0 0
23 1 7 0.42 20.569791764528336 3.6501410501160714 8.929781285532698 0 0 0
148 1 7 0.42 32.82382575169679 6.069700784828772 8.973296204665491 0 0 1
153 1 5 -0.65 36.0325124656257 7.220403970711015 9.454712637766525 0 0 0
170 1 7 0.42 18.63276856988256 8.016847516265553 9.124241748862797 1 0 0
64 1 7 0.42 25.580097550218134 8.407130343720475 9.541815846126994 0 0 0
32 1 5 -0.65 26.432169350557444 8.630823613346546 9.91355249336799 0 0 0
46 1 9 0.09 24.805031389478582 9.840499980626777 9.447689508744089 0 0 0
169 1 7 0.42 35.58880975325085 9.30901173442241 9.574586437284653 0 0 0
27 1 5 -0.65 22.19026214229064 10.604994713508908 9.64092235085917 0 0 0
54 1 9 0.09 24.3405485823283 12.102003394430959 9.290507260084036 0 0 0
19 1 10 0.09 18.98419917653915 2.6467550821228967 10.347677783718341 0 0 0
12 1 4 0.05 19.115454595881896 3.775655161791618 10.326218351093756 0 0 0
18 1 10 0.09 35.921699042238295 4.233403339463766 10.358112886677516 -1 0 0
159 1 1 0.29 35.822338738534015 7.296504094866628 10.84138022128583 0 0 0
24 1 8 -0.36 23.911686503993966 8.457559670594442 10.682166342050843 0 0 0
164 1 9 0.09 33.88415564303717 8.093590840793324 10.713427326196447 0 0 0
158 1 2 0.14 34.87393282592925 8.367467203446989 11.116226184015035 0 0 0
34 1 2 0.14 24.36861393119848 9.787988429300054 10.47161622929221 0 0 0
152 1 5 -0.65 35.36960523830747 9.514456700058386 10.477739915003205 0 0 0
35 1 2 0.14 23.26312097955116 10.797561600323764 10.53901607766674 0 0 0
42 1 2 0.14 23.921682796138207 12.119639569166488 10.307365662966415 0 0 0
30 1 5 -0.65 23.014613356925853 13.21478858948064 10.499338395504832 0 0 0
55 1 9 0.09 25.518125276325442 13.351924327473792 10.946425887860261 0 0 0
9 1 3 0.11 19.900535555944312 4.260336328130805 11.51537860618423 0 0 0
15 1 9 0.09 20.95704251049079 3.955148078040833 11.498385753293764 0 0 0
1 1 6 0.04 19.884735709493512 5.679196167429242 11.33684649410471 0 0 0
61 1 7 0.42 22.032061032089388 5.70702897166986 11.408692967115527 0 0 0
28 1 5 -0.65 22.146610031123018 6.639258236030208 11.284864667855292 0 0 0
143 1 10 0.09 29.499852406402702 6.790689792262524 11.53203720905547 0 0 0
150 1 6 0.04 35.30136204784124 6.082492853914886 11.475607608738775 0 0 0
165 1 9 0.09 18.956570830472963 7.593437635324517 11.29319960271408 1 0 0
56 1 10 0.09 25.799705030993287 7.889231740158895 11.785268099900168 0 0 0
36 1 1 0.29 23.404592767043564 8.509099034727207 11.958208291195186 0 0 0
44 1 4 0.05 26.264226143942942 8.79661304755075 11.29307531980122 0 0 0
57 1 10 0.09 27.2528697144016 8.952729577943348 11.726242972499538 0 0 0
25 1 6 0.04 22.357671032119217 9.460605522219108 11.913051841726151 0 0 0
38 1 3 0.11 25.425082770481104 10.010593085050072 11.469546817346126 0 0 0
146 1 7 0.42 29.045845271485547 9.602723501653767 11.968488425239094 0 0 0
47 1 9 0.09 22.923369303707297 10.798024772327128 11.59307712737438 0 0 0
26 1 6 0.04 26.0525535394643 11.308408920766208 11.245127484137816 0 0 0
43 1 1 0.29 25.05809431512892 12.344215432077814 11.198827357249844 0 0 0
63 1 7 0.42 23.079665805052482 13.534478228407725 11.402833815553997 0 0 0
2 1 5 -0.65 19.201678921006817 2.5879718606394104 13.02445080181366 0 0 0
7 1 2 0.14 19.248517374122006 3.9578875645559544 12.831816307091515 0 0 0
154 1 5 -0.65 33.71005565771697 4.340235799553284 12.800828148154396 0 0 0
13 1 9 0.09 36.01193502211997 4.3079476961128345 12.874574703833677 -1 0 0
171 1 7 0.42 32.859979203924 4.736168195358969 12.970016910080053 0 0 0
11 1 1 0.29 20.640176951908334 6.416451180083895 12.338127190248638 0 0 0
17 1 9 0.09 21.72348721910467 6.2696457079956245 12.32584813841789 0 0 0
49 1 9 0.09 23.77544806685704 6.625500552586811 12.608246092838385 0 0 0
72 1 5 -0.65 27.702886246064878 6.8095060523046795 12.833639230846789 0 0 0
142 1 10 0.09 30.860666719274022 6.478364382480758 12.671139304779828 0 0 0
144 1 7 0.42 31.02988815620627 6.72027763104087 12.84148599927518 0 0 0
147 1 7 0.42 32.38298011566224 5.6993056452377395 12.566286971992877 0 0 0
114 1 5 -0.65 33.228075060566496 5.761831467133728 13.002233622249323 0 0 0
157 1 3 0.11 35.17691579259848 6.231751047848132 12.895681268266747 0 0 0
163 1 9 0.09 36.195441757606176 6.469108288622179 13.23736919252503 0 0 0
5 1 8 -0.36 20.382339683982348 7.787729682842153 12.257907411656738 0 0 0
37 1 2 0.14 22.873831660482203 7.211339608646216 12.354796096845337 0 0 0
105 1 7 0.42 27.841944403426258 7.735878520816974 12.623239244182678 0 0 0
129 1 4 0.05 30.007121535393075 7.154593134680962 12.438905181558082 0 0 0
161 1 9 0.09 33.25414830106422 7.1433736553920095 12.868749314283047 0 0 0
155 1 2 0.14 34.264729595569534 7.379854579043018 13.224433511282808 0 0 0
48 1 9 0.09 24.234449487551576 8.781186395626857 12.648935950605262 0 0 0
102 1 7 0.42 24.743318054685833 8.967106610184894 13.148260530200155 0 0 0
69 1 5 -0.65 25.22143394971561 8.144218655076 13.062638823849724 0 0 0
136 1 9 0.09 27.298474252005626 8.156749327930537 13.299984859236897 0 0 0
117 1 5 -0.65 30.542936416544542 8.450912316666226 12.393698111736626 0 0 0
149 1 7 0.42 31.263641009060674 8.49726806117554 13.007566958423169 0 0 0
156 1 2 0.14 34.73698321674852 8.614315294825477 12.5745808454154 0 0 0
162 1 9 0.09 35.73504894183324 8.804483249946937 12.974243791413926 0 0 0
41 1 3 0.11 21.678939754648315 9.570174762711282 13.162868625915811 0 0 0
50 1 9 0.09 25.00491585987369 9.942720577825856 12.515100640286924 0 0 0
113 1 5 -0.65 29.598032030533755 9.831593939992278 12.713190934345256 0 0 0
151 1 5 -0.65 33.80390988753672 9.665779640905932 12.85796122241065 0 0 0
53 1 9 0.09 20.826135301065428 10.260557912218541 13.052959151586442 0 0 0
31 1 8 -0.36 24.416415069980232 12.463354532685592 12.465482012190154 0 0 0
95 1 9 0.09 26.717973508903512 11.554261185952939 12.326230528919465 0 0 0
83 1 3 0.11 26.277797083457116 11.502964006480841 13.354387782913523 0 0 0
20 1 7 0.42 36.32960413571972 13.662771618293466 12.445270239746637 -1 -1 0
14 1 9 0.09 21.086329831817167 4.147804324285852 13.893760417551164 0 0 0
167 1 10 0.09 35.68526642875718 4.388623091751345 13.688356904619074 0 0 0
8 1 2 0.14 20.073052496883584 4.585296465329067 13.906833625970158 0 0 0
160 1 4 0.05 34.75460103812799 4.975873405656962 13.570470374675995 0 0 0
16 1 9 0.09 19.11449903228305 6.415274446974252 13.696626259767182 0 0 0
10 1 2 0.14 20.1416511701975 6.06066868163251 13.677491616378251 0 0 0
51 1 9 0.09 21.63468653861072 6.272325552998243 13.64247450728906 0 0 0
96 1 9 0.09 26.360541106033928 5.7080117976571625 14.04370586997128 0 0 0
84 1 2 0.14 26.932861106885305 6.677189435761079 14.02399471507627 0 0 0
137 1 9 0.09 28.534345253842137 6.14190379144838 13.59952499527544 0 0 0
126 1 2 0.14 32.92837903994741 5.912035621678438 14.379504934343306 0 0 0
39 1 2 0.14 22.120159483482894 7.273745560738375 13.546052093068116 0 0 0
77 1 2 0.14 26.107857229931806 7.91902459029748 14.169315137965778 0 0 0
125 1 3 0.11 29.1446591007891 7.076247678815385 13.595542915680662 0 0 0
111 1 5 -0.65 30.829010773855025 7.042855054124518 13.715773718573182 0 0 0
131 1 9 0.09 32.6743652612133 7.887803212934688 14.180406875991567 0 0 0
52 1 9 0.09 20.392136752996787 8.244519314162826 14.288928219415547 0 0 0
40 1 2 0.14 21.04960066956828 8.251623747304084 13.389502774918444 0 0 0
65 1 7 0.42 24.158832184405878 9.104230310624727 13.727325591875722 0 0 0
89 1 9 0.09 26.85979572444527 8.743351815182884 14.263314812644337 0 0 0
124 1 2 0.14 28.22666063522219 8.200987310520688 13.911334964836591 0 0 0
132 1 9 0.09 31.34165115390475 8.590156139896912 14.071869917884268 0 0 0
45 1 4 0.05 22.57190453217443 10.12289910177725 14.18155570294331 0 0 0
103 1 7 0.42 23.263282216633108 9.969264678770951 14.461717477319183 0 0 0
67 1 6 0.04 25.64150423736499 10.240242198908906 13.604554576753777 0 0 0
123 1 2 0.14 28.86197347496619 9.526540355817339 13.880308984578448 0 0 0
168 1 7 0.42 34.00005031929462 10.12591902636391 13.685672593176916 0 0 0
58 1 10 0.09 23.077140719944108 11.008207253117885 13.672230968614217 0 0 0
70 1 5 -0.65 23.38429872676156 10.929685408075109 14.406569622327716 0 0 0
75 1 5 -0.65 28.108676985737997 10.336889765627213 14.357451892599064 0 0 0
135 1 9 0.09 28.076536892868837 10.264918547664497 14.05782302137154 0 0 0
87 1 4 0.05 27.39102981949454 11.557368318175126 14.308555189466906 0 0 0
100 1 10 0.09 28.09104317408096 12.369945409808999 13.982227845005458 0 0 0
82 1 2 0.14 25.379341084197076 12.630722009331087 13.50417141089294 0 0 0
94 1 9 0.09 25.97707321251009 13.577113821398683 13.413484680166402 0 0 0
3 1 5 -0.65 19.470044085907666 4.367537181441602 15.20468755334506 0 0 0
21 1 7 0.42 18.707172066368546 4.926133043890857 15.340426019773581 0 0 0
138 1 9 0.09 32.50996078314671 4.946785100382362 14.784782183089135 0 0 0
166 1 10 0.09 34.39554397839285 5.202490701036139 14.62347786879636 0 0 0
139 1 9 0.09 34.94049863928508 5.676794131345652 14.872958282329373 0 0 0
4 1 5 -0.65 20.923513267493355 6.705808007808392 14.7172928718477 0 0 0
22 1 7 0.42 21.74784505680886 6.271234737601813 14.903779268902074 0 0 0
85 1 1 0.29 27.7667495684951 6.679673262953955 15.19023277158993 0 0 0
97 1 9 0.09 28.719899917656143 6.150809333606842 15.07247312887356 0 0 0
127 1 1 0.29 34.079423141138165 6.3243977075494096 15.143019349983422 0 0 0
29 1 5 -0.65 22.98298548892722 7.520533748575817 14.668668227438399 0 0 0
88 1 9 0.09 24.61048836298262 7.105548217247541 15.369250688918477 0 0 0
76 1 2 0.14 25.35808084435579 7.944960534493342 15.430923007154355 0 0 0
109 1 6 0.04 29.959841012866193 7.143879489612481 14.760771750787281 0 0 0
119 1 2 0.14 32.00293588372935 7.08680909645292 14.5275362086439 0 0 0
115 1 8 -0.36 34.178848168369115 7.613373702064293 14.593358915025828 0 0 0
62 1 7 0.42 23.43597067324555 8.356303767807187 14.569924003561377 0 0 0
73 1 8 -0.36 27.8971244029978 8.030082412832414 15.237545933980055 0 0 0
120 1 1 0.29 30.588652641384137 8.454359995439777 14.86943644406566 0 0 0
33 1 5 -0.65 23.563775741555663 9.147861872841833 14.466497731412161 0 0 0
107 1 7 0.42 27.542496334101003 9.64612304046744 14.720517813904756 0 0 0
121 1 2 0.14 29.711391837634565 9.553987829249838 14.964766386800639 0 0 0
59 1 10 0.09 21.976486735763494 10.528112025004269 15.025867189743 0 0 0
79 1 2 0.14 24.38515464994547 11.30390925787626 15.276178239851497 0 0 0
78 1 1 0.29 25.349450342726325 10.297598239788254 15.010670577066044 0 0 0
90 1 9 0.09 26.280728778479283 10.6059313245357 15.485610245093303 0 0 0
133 1 9 0.09 30.3483939454818 10.48949753710086 14.912907143457307 0 0 0
101 1 10 0.09 26.9746025292931 11.868481386581276 15.289050876183474 0 0 0
93 1 9 0.09 23.950669369088587 13.251080031306351 14.964030565488027 0 0 0
81 1 2 0.14 24.864610840577193 12.653097530644043 14.885782816359391 0 0 0
68 1 6 0.04 26.939991823101025 6.353103790394829 16.307547672022064 0 0 0
130 1 9 0.09 31.254625911682197 6.589294839390102 16.454555023471304 0 0 0
110 1 6 0.04 33.806736736641355 6.3188330203747345 16.577704627299827 0 0 0
80 1 3 0.11 26.28920319199633 7.587531804837137 16.585980737092452 0 0 0
118 1 2 0.14 31.84477669649966 7.427046786772314 15.99796591303842 0 0 0
92 1 9 0.09 27.116495894030745 8.337348635919096 16.619237063158522 0 0 0
108 1 8 -0.36 31.152835224392177 8.609841963393302 16.087983758577096 0 0 0
134 1 9 0.09 33.657654431045316 8.338572977219062 16.275066827879424 0 0 0
66 1 8 -0.36 24.689608768789384 9.157505096875415 15.605233544680615 0 0 0
112 1 5 -0.65 29.125569690379276 9.4642052736843 16.236095739343213 0 0 0
91 1 9 0.09 24.058899709409456 11.250679383396367 16.356175021569243 0 0 0
104 1 7 0.42 25.716910257746783 13.003135295116852 16.645347928230773 0 0 0
71 1 5 -0.65 25.928669592000453 13.11886889010351 15.716698199208203 0 0 0
122 1 3 0.11 33.08296543195982 7.497707800936899 16.75819664707622 0 0 0
145 1 7 0.42 29.833833683280766 9.290851573841675 16.869121414546576 0 0 0
99 1 10 0.09 24.932119182865396 6.732910216387454 18.075108342486523 0 0 0
116 1 5 -0.65 32.128776297854515 6.697683078277543 18.769423505312446 0 0 0
86 1 4 0.05 25.679099217681316 7.558413122091444 17.966470256680385 0 0 0
98 1 10 0.09 26.488975021221115 7.30524521851442 18.658561944344065 0 0 0
128 1 4 0.05 32.69063809284236 7.826639341400829 18.14487265088755 0 0 0
106 1 7 0.42 24.177776332030323 8.82347117630059 17.830732195255585 0 0 0
74 1 5 -0.65 25.027103172861615 8.7980432130392 18.270137924222883 0 0 0
140 1 10 0.09 31.913183625369353 8.630028048078685 18.123329602090703 0 0 0
141 1 10 0.09 33.56294262177846 8.214243415635217 18.66047340457323 0 0 0
60 1 7 0.42 22.53710202346182 10.308894559531346 18.793793658379297 0 0 -1

Velocities

6 0.0016017904176054074 0.0015343697957693715 0.0035557083606907692
23 0.009842643850050164 -0.001353072907138096 0.00507936226577972
148 -0.0025052781706467898 -0.008610998290879225 0.009961867313299956
153 0.000761194364723097 -0.00035727588899021656 -0.0019486840335783853
170 0.007851346749908637 -0.0037482007557144022 0.0016121760085400345
64 -0.007003083802144833 0.0012149613593554934 0.005848500796697058
32 0.006399685038228104 -0.0036564627530440963 0.0016818943921738934
46 0.01513121655227769 -0.009374808975160265 0.003363558167776168
169 0.0035693124856885088 -0.002886956494747415 0.0018501404731052838
27 -0.010738328810302174 0.0023243098089513765 -0.0035697176529742155
54 0.0014089851347871803 -0.00859864889633446 -0.011612562389484575
19 -0.005513505325842609 -0.005850248880344023 0.007315038490921236
12 -0.006760964673177969 -0.0019904848016662592 -0.00013571402236028178
18 -0.0065486957554596464 -0.011229532589244272 -0.005969793876993738
159 0.011937839352231779 -0.0019523202879789823 -0.003238230918983829
24 -0.007034465483968436 0.005878662312914334 0.0003667467939628076
164 -0.027581244548033325 0.03209120932849085 0.03767885836920114
158 -0.005586435613992517 0.002776347020598553 0.0012955935710473356
34 0.004111553651827921 -0.0004810556845543794 -0.0022486990888062365
152 0.0017392683964793563 -0.0022141622970635643 -0.0025163996397595794
35 -0.00776447138065806 0.0006870021436381241 -0.001194627637513033
42 -0.004372188567232719 -0.0019747426550262397 -0.007562751835233751
30 -0.009313440401097326 -0.0026784257750481167 -0.0012257193448118972
55 -0.006513184535917413 -0.0077923225452659894 -0.008733248853082283
9 0.006843215350883695 -0.0018554796186265135 0.0004957226467926229
15 0.010006063905033944 0.026337553679366535 0.0036224097849130252
1 -0.004203574161762255 -0.0024122346575433645 -0.006006734308377662
61 -0.00040240402177336206 0.0007303096059476751 -0.000286464777281259
28 -0.0037003640403678044 -0.000826466912668649 0.005667524192311783
143 0.0159588952029142 0.006699226695182151 -0.010573120846934791
150 0.002718989127105277 0.0007504109082741764 -0.003116130247092898
165 0.02772231829686786 -0.021656158981993648 -0.013718064899920458
56 0.02396384424318433 -0.002734157096538329 -0.010663513832082243
36 0.0011173629792611776 0.004118981983342093 -0.0035070698494336265
44 0.017165180042397518 0.0016933680970163724 0.0015357304833329122
57 0.02942048714682514 -0.015254521588061266 -0.007763640009350137
25 -0.004562324539554196 8.590174929080616e-05 -3.1476017525705796e-05
38 0.0063442309446270495 0.00687709547330861 0.00018342668145646175
146 -0.0003271649253211941 -0.0022333878629481113 -0.010219355571571493
47 -0.01541345378938755 0.007185028018501645 -0.0035664411140572906
26 0.01194140369566792 0.006986612384878397 0.011649283228056443
43 -0.003871775013309407 -0.003953204458521135 -0.004603146131942045
63 0.0013615378427484942 -0.007147762789393493 -0.008490142590373777
2 -0.0003957055557147039 0.0009514805248265434 0.000187906784964174
7 -0.009828057858007036 -0.0035075595298256087 0.0015620644599370333
154 -0.004566161494964129 0.0016311418165243015 -0.004122884571326312
13 -0.011176776160727344 -0.020022335956189102 -0.008917759858196702
171 -0.01862761531202253 0.0008687441744414775 -0.001536727036458457
11 -0.0022441399169344915 0.005217911041035424 -0.005434362753541108
17 -0.0025003650217561967 0.02209734023140644 0.003326835429231105
49 0.01774837926420726 0.020983524685948815 -0.021687976358346742
72 0.010065665271291277 -0.0059548338719198545 0.0036459697523866155
142 0.005557751373200696 0.000300018523025685 -0.008006484416942473
144 -0.03273662187609879 0.006841712622957069 0.003987182437155572
147 -0.006116075095303363 -0.00033938730933680256 -0.008060018083810837
114 0.004404659145039062 -0.0038657683816595927 0.00490026156725462
157 0.006777323953002159 -0.0031463494706031876 -0.0034652221900951193
163 0.012675404837792635 -0.007331667207376835 -0.032202800166926476
5 -0.009318256290104387 1.9870067217374334e-05 0.00686438553904515
37 0.004151995793725122 0.004383875726004939 -0.0032073487157784214
105 -0.00020832119705955398 -0.01157328022551807 0.004382581631585347
129 0.0034494052912400373 0.0006247347848401923 -0.0018689698939467658
161 -0.022554313886330987 0.019793047624953222 0.021732905829201354
155 -0.01204951152232571 0.0005569484930715479 0.0038407005321870104
48 0.009319414187402938 -0.004161110662468601 -0.012672102343577876
102 -0.006122474723172604 0.0062833857139033885 0.007867134891631938
69 -0.010776602408056161 0.002482862632548829 0.002254409244490188
136 -0.00980770053512846 0.007365235185558124 0.010466770273189464
117 0.005577873342025346 0.003198525080258126 -0.006087267279115958
149 0.013407644715643013 -0.004881703875855078 0.0073664611933458805
156 0.0029153984705426184 -0.0007380692717811775 -0.0024310829134810653
162 0.015508033549517531 0.011954376733260292 -0.036470694766397416
41 -0.00165445573827456 -0.005874916806900579 0.00069522648432648
50 -0.026642441568864327 0.009688978208381509 -0.015196232861375178
113 -0.0013432823265285513 -0.0015078888918668109 -0.0014893672908758376
151 -0.003263224113588458 -0.004762996168036859 0.005053100342882813
53 -0.0067021072882567515 -0.0062438698076617205 0.014438247062046028
31 -0.0023085900703112452 -0.0018093597870999603 0.0009053924912358114
95 0.020620269153027518 0.005959770334588666 0.017920551141071644
83 0.009203397354913469 -0.002480539775988108 0.008860312861849929
20 -0.00814032016674375 -0.0011362795834991436 -0.0013805407766215101
14 0.020799267345943874 0.03970644427869806 -0.001705714958001356
167 0.0073186279950826615 -0.0036991315129384214 -0.001759860754742332
8 0.005389544066377459 0.002806258877365639 0.0018940914682104304
160 0.003638839259205953 0.005214896928995792 0.0072178213031521225
16 -0.014947663569352381 -0.02471166883716829 0.00447606878755431
10 -0.004865477721887925 -0.004813005761868636 -2.6983697265767764e-05
51 -0.010437039052299715 -0.0016557251354368536 0.015044615609997758
96 -0.019031011567367362 0.009936970509741525 0.0005540614262242095
84 -0.002317441758657447 -0.0007392013231210796 -0.00015827760881446056
137 -0.008815249471355036 -0.0002103352985545025 -0.020329866469337408
126 -0.0013901359696893627 -0.000938990936001926 -0.002678213334223874
39 -0.0016707502684264832 -0.0037557783271433467 -0.0015338044227481815
77 0.0014648424803572401 -0.0030056965572248075 0.00034151576905014944
125 -0.005316658931511316 0.00516450453761159 -0.007586181650263559
111 -0.008588622086206062 0.003963557358294456 0.007952640778874627
131 0.00479768408483206 -0.006093521388447047 -0.012731754355942445
52 0.0006818580435685906 0.017439135382538055 -0.0034023650695177796
40 0.0011164582933747764 -0.001242412069743535 -0.001481736806476876
65 0.00948997783035133 0.0020422557407986258 -0.004058275437252105
89 0.024472429074038755 -0.02049684573895247 -0.0008727475190360371
124 -0.004993026295885653 0.0032640618152278925 -0.0012256472924811023
132 0.013458316171763861 0.007421882325009908 0.012579564236094904
45 -0.0006741384176615492 0.0006141493107948392 2.7980794310574332e-05
103 0.007496679692991783 0.009252769500060262 0.010368695490234376
67 0.000926490906161816 0.0007798132482858316 -0.0022393629382812205
123 -0.005539577204354043 -0.00044014047629373053 -0.004275280291161071
168 -0.005092616663384197 0.0013595287701154736 -0.011298959658614388
58 -0.007351531450092286 0.005843448522676662 0.0059511599286366885
70 -0.012241328887419918 -0.00259078312770505 0.001159565649384006
75 0.014688614559020057 -0.004221575743819812 0.0069738214287681614
135 -0.01628931119163978 -0.000999849942202973 -0.026453726929530873
87 0.015121651073811082 -0.003318783395000058 -0.004202365945970212
100 0.019276147955573676 -0.006649317673349574 -0.000916522241382519
82 0.006713000394830749 -0.0011197255793776676 2.334063092621633e-05
94 0.008601040939496067 0.000898287108607751 -0.016260333617874344
3 -0.0014016254531528166 -0.0023684532540817625 -0.0037836833984486065
21 -0.011128486489811991 0.006041484392346722 -0.004993233911874393
138 -0.025189789140965282 0.005039325297706062 -0.01412580544137812
166 0.011281750922288296 0.01428268966671057 0.003923806008656968
139 0.03308981830975304 0.017138225030634373 0.015299807576056895
4 0.002744266102558065 0.0023184225938266364 -0.00426478777149843
22 0.01686676866956359 -0.0036683610312422937 -0.0015745427389787469
85 0.002448236180141686 0.003779462005166462 0.00013998626284876943
97 0.015869033430117613 0.011367626392517594 0.008249404635408294
127 0.015322433029816354 -0.00275620149870193 0.001952698707018051
29 0.0011328882378799365 0.004914933117294326 0.00026694107270474693
88 -0.01252758419147471 -0.0034793675787154034 -0.022757783218305013
76 -0.007868875017425085 -0.005599532581021507 0.0009768753562098566
109 0.0019687820439662227 0.0041724480826119004 -0.0062396399740009675
119 0.0038190125002076445 -0.0005162386972201081 0.005437468882245883
115 0.00575244849055324 -0.001480202565941464 0.0054930692686405574
62 0.00214533142567113 -0.0017049591565989535 -0.012384957357427416
73 -0.002353990522723374 0.0004586760747749544 -0.0017414259936515842
120 -0.00021074650257046917 0.005312497436836748 0.001630156342129951
33 0.006268532432130514 -0.0016691551754908116 0.004109349261489201
107 0.017552407059838238 -0.0006633422240778787 0.0003441317636259968
121 -0.0036132089581353273 0.00046668020077487 -0.004210267598343694
59 -0.006871252684491597 -0.006924549135245923 0.006901196924910218
79 -0.010133541824681602 0.010999132644466968 0.004343935134800955
78 -0.0006594867794825327 0.005261186716388734 -0.004419049370278786
90 0.0044779014351885435 0.005043402089158266 -0.017899570374722354
133 0.0113908744682757 -0.011550576602381764 0.016628971829287503
101 0.007874089135346278 -0.009896519895449428 -0.002746493315055533
93 -0.001883510847665958 0.018977995055890748 0.0059326819483801595
81 -0.008341625283230446 9.232305782055285e-05 -0.003960589350778291
68 -0.004894182283551839 0.002617301985669864 -0.0006950049730830937
130 -0.01982950826655139 0.001550953732277322 -0.005456054789881769
110 0.011546032302149553 -5.637825679244402e-05 -0.0014851045566966275
80 -0.0037769190441069977 -0.0051458009580861545 0.0043927200320842625
118 -0.003391204927175709 -0.001973244143798333 0.004941269403582376
92 0.010857175135083752 -0.017591185206883256 0.006978163154617313
108 0.0029305967100228952 0.0004094557743235293 -0.0006411947322557534
134 0.021977961211848477 -0.0027904774849795465 0.015822863007185366
66 -0.0006164153185842995 0.0004976278993212191 0.0007952538590751118
112 -0.006872552674651141 0.002927271752390645 -0.006568505773543868
91 -0.014091961410132635 0.02385305109408823 -0.0014581192027299937
104 0.018522599463001672 0.004354127145218848 -0.0025620805844898164
71 -0.0018757102355610566 -0.006242554396681387 -0.003858434799811608
122 0.011752153932251555 -0.005278402209097051 0.002652384190983191
145 -0.008443562905697977 -0.0010486382573928173 -0.0008237010335928361
99 -0.00302807036190832 -0.006073086527377328 0.01350655909137614
116 3.853550127476311e-05 0.00022704167035371726 0.001270291184188902
86 -0.005725163079597109 -0.003949210850034689 -0.0006451123981792632
98 -0.00383298173366279 0.009060268986970455 -0.0024521317158571997
128 0.005524301307179009 -0.005421089184672878 -0.0035726600173114566
106 -0.013809045881383363 -0.00231531879610692 -0.0018129588545328828
74 -0.0006341228739524629 0.002471265627986361 0.000729880694399941
140 0.015685113817464204 0.00017673834356374678 -0.008421256095472358
141 0.0033722944420226148 -0.01846871552544755 0.00048418772519269416
60 -0.004768947397063037 -0.00027424410871054874 0.006579242640978155

Bonds

1 12 6 12
2 14 6 23
3 16 153 159
4 14 153 170
5 12 32 44
6 14 32 64
7 5 27 35
8 14 27 60
9 13 12 18
10 13 12 19
11 3 159 165
12 15 24 34
13 2 24 36
14 4 158 159
15 6 158 164
16 7 34 35
17 8 34 38
18 6 34 46
19 5 152 158
20 14 152 169
21 7 35 42
22 6 35 47
23 4 42 43
24 6 42 54
25 5 30 42
26 14 30 63
27 11 9 12
28 10 9 15
29 9 1 9
30 1 1 11
31 5 28 37
32 14 28 61
33 9 150 157
34 1 150 159
35 4 36 37
36 3 36 48
37 13 44 56
38 13 44 57
39 1 25 36
40 9 25 41
41 11 38 44
42 10 38 50
43 9 26 38
44 1 26 43
45 3 43 55
46 5 2 7
47 14 2 20
48 7 7 8
49 8 7 9
50 6 7 13
51 12 154 160
52 14 154 171
53 3 11 17
54 5 72 84
55 14 72 105
56 5 114 126
57 14 114 147
58 11 157 160
59 10 157 163
60 2 5 11
61 15 5 40
62 7 37 39
63 6 37 49
64 13 129 142
65 13 129 143
66 7 155 156
67 8 155 157
68 6 155 161
69 5 69 77
70 14 69 102
71 12 117 129
72 14 117 149
73 7 156 158
74 6 156 162
75 11 41 45
76 10 41 53
77 5 113 123
78 14 113 146
79 5 151 156
80 14 151 168
81 2 31 43
82 15 31 82
83 11 83 87
84 10 83 95
85 7 8 10
86 6 8 14
87 13 160 166
88 13 160 167
89 4 10 11
90 6 10 16
91 4 84 85
92 6 84 96
93 4 126 127
94 6 126 138
95 7 39 40
96 6 39 51
97 7 77 84
98 6 77 89
99 11 125 129
100 10 125 137
101 5 111 119
102 14 111 144
103 8 40 41
104 6 40 52
105 8 124 125
106 6 124 136
107 13 45 58
108 13 45 59
109 1 67 78
110 9 67 83
111 7 123 124
112 6 123 135
113 5 70 79
114 14 70 103
115 12 75 87
116 14 75 107
117 13 87 100
118 13 87 101
119 8 82 83
120 6 82 94
121 5 3 8
122 14 3 21
123 5 4 10
124 14 4 22
125 3 85 97
126 3 127 139
127 5 29 39
128 14 29 62
129 7 76 77
130 8 76 80
131 6 76 88
132 1 109 120
133 9 109 125
134 7 119 126
135 6 119 131
136 2 115 127
137 15 115 155
138 2 73 85
139 15 73 124
140 4 120 121
141 3 120 132
142 12 33 45
143 14 33 65
144 7 121 123
145 6 121 133
146 7 79 81
147 6 79 91
148 4 78 79
149 3 78 90
150 7 81 82
151 6 81 93
152 9 68 80
153 1 68 85
154 9 110 122
155 1 110 127
156 11 80 86
157 10 80 92
158 7 118 119
159 8 118 122