LAMMPS data file via write_data, version 29 Oct 2020, timestep = 631

171 atoms
10 atom types
178 bonds
16 bond types
329 angles
37 angle types
472 dihedrals
61 dihedral types

18.531791360430745 36.33453396988077 xlo xhi
2.2593593829530443 13.699482400949183 ylo yhi
8.904712391555329 18.902481213601966 zlo zhi

Masses

1 12.0107
2 12.0107
3 12.0107
4 12.0107
5 15.9994
6 15.9994
7 1.008
8 15.9994
9 1.008
10 1.008

Pair Coeffs # lj/cut/coul/cut

1 0.032 3.564
2 0.032 3.564
3 0.032 3.564
4 0.032 3.564
5 0.192 3.145
6 0.1 2.94
7 0.046 0.4
8 0.1 2.94
9 0.045 2.388
10 0.035 2.388

Bond Coeffs # harmonic

1 360 1.425
2 360 1.395
3 309 1.11
4 222.5 1.48
5 410 1.41
6 309 1.11
7 222.5 1.48
8 222.5 1.5
9 360 1.425
10 309 1.11
11 222.5 1.49
12 428 1.42
13 309 1.11
14 545 0.96
15 360 1.415
16 428 1.4

Angle Coeffs # harmonic

1 90 112
2 45 109.5
3 45 106
4 45 109.5
5 45 105
6 34.5 110.1
7 55 108.9
8 75.7 110.1
9 75.7 110.1
10 34.5 110.1
11 34.5 110.1
12 53.4 111
13 53.4 111
14 75.7 110.1
15 34.5 110.1
16 53.4 111
17 45 109.5
18 45 110
19 45 109
20 34.5 110.1
21 34.5 110.1
22 58.4 113.5
23 55 108.9
24 75.7 110.1
25 35.5 109
26 33.4 110.1
27 50 109
28 95 109.7
29 50 109
30 50 109.2
31 60 109.5
32 45 109.5
33 90 112
34 45 116.5
35 55 108.9
36 75.7 107
37 50 109

Dihedral Coeffs # fourier

1 1 0.41 1 180
2 3 0 1 0 0 2 0 0.284 3 0
3 3 0 1 0 0 2 0 0.2 3 0
4 1 0.05 1 180
5 3 0 1 0 0 2 0 0.284 3 0
6 3 0 1 0 0 2 0 1.6 3 0
7 1 2.75 1 180
8 3 0 1 0 0 2 0 0.2 3 0
9 3 2.65 1 180 0 2 0 0.13 3 180
10 3 0 1 0 0 2 0 0.2 3 0
11 3 0 1 0 0 2 0 0.2 3 0
12 3 0 1 0 0 2 0 0.14 3 0
13 3 0 1 0 0 2 0 0.2 3 0
14 3 0 1 0 0 2 0 0.2 3 0
15 3 0 1 0 0 2 0 0.18 3 0
16 3 0 1 0 0 2 0 0.2 3 0
17 3 0 1 0 0 2 0 0.2 3 0
18 3 0 1 0 0 2 0 0.19 3 180
19 3 0 1 0 0 2 0 0.2 3 0
20 3 0 1 0 0 2 0 0.2 3 0
21 3 0 1 0 0 2 0 0.2 3 0
22 3 0 1 0 0 2 0 0.2 3 0
23 3 0 1 0 0 2 0 0.19 3 180
24 3 0 1 0 0 2 0 0.2 3 0
25 3 0 1 0 0 2 0 0.2 3 0
26 3 0.29 1 0 0.62 2 0 0.05 3 0
27 3 0 1 0 0 2 0 0.31 3 180
28 3 0 1 0 0 2 0 0.2 3 0
29 3 0 1 0 0 2 0 0.2 3 0
30 3 1.36 1 180 0.16 2 0 1.01 3 0
31 3 0 1 0 0 2 0 0.2 3 0
32 3 0 1 0 0 2 0 0.2 3 0
33 3 0 1 0 0 2 0 0.2 3 0
34 3 0 1 0 0 2 0 0.2 3 0
35 3 0 1 0 0 2 0 0.2 3 0
36 3 0 1 0 0 2 0 0.2 3 0
37 3 0 1 0 0 2 0 0.284 3 0
38 3 0 1 0 0 2 0 0.2 3 0
39 3 0 1 0 0 2 0 0.2 3 0
40 3 0 1 0 0 2 0 0.2 3 0
41 3 0.75 1 180 0.17 2 0 0.25 3 180
42 3 0 1 0 0 2 0 0.2 3 0
43 3 0 1 0 0 2 0 0.14 3 0
44 3 0 1 0 0 2 0 0.2 3 0
45 3 0.29 1 0 0.62 2 0 0.05 3 0
46 3 0 1 0 0 2 0 0.18 3 0
47 3 0 1 0 0 2 0 0.284 3 0
48 3 0.13 1 180 0.25 2 180 0.06 3 180
49 3 0 1 0 0 2 0 0.2 3 0
50 3 2.65 1 180 0 2 0 0.13 3 180
51 3 0 1 0 0 2 0 0.2 3 0
52 3 1.36 1 180 0.16 2 0 1.01 3 0
53 3 0 1 0 0 2 0 0.2 3 0
54 3 0 1 0 0 2 0 0.2 3 0
55 3 0.41 1 180 0.89 2 0 0.05 3 0
56 3 1.55 1 0 1.17 2 0 1.07 3 0
57 3 0 1 0 0 2 0 0.18 3 0
58 3 0.29 1 0 0.62 2 0 0.05 3 0
59 3 2.65 1 180 0 2 0 0.13 3 180
60 3 0 1 0 0 2 0 0.14 3 0
61 3 0 1 0 0 2 0 0.2 3 0

Atoms # full

6 1 5 -0.65 36.32580340094151 4.447705270331093 8.920028320906395 -1 0 0
23 1 7 0.42 19.330927317881088 4.05074859735914 18.5841097045815 0 0 -1
148 1 7 0.42 34.62115869673298 6.445963108352501 18.899086400506803 0 0 0
153 1 5 -0.65 19.372536652314636 6.316905527063308 9.068706524929752 1 0 0
170 1 7 0.42 19.741334505437536 7.091882646959114 18.63633844941317 1 0 -1
64 1 7 0.42 26.605632085481016 9.095236745886037 9.714209032057946 0 0 0
32 1 5 -0.65 27.079637494268773 9.607519453783738 10.373344304989695 0 0 0
46 1 9 0.09 24.704239602683852 10.077665110408667 9.49614931082195 0 0 0
169 1 7 0.42 18.53774788475436 8.408620631108127 18.874219201337784 1 0 -1
27 1 5 -0.65 22.131685136590438 10.599666716825993 9.490363385734232 0 0 0
54 1 9 0.09 23.99940534171089 12.434050944568481 9.306758139871977 0 0 0
19 1 10 0.09 36.03784171906421 2.6987440222329306 9.987265996804204 -1 0 0
12 1 4 0.05 35.95478641303705 3.7968769435585403 10.126334033456809 -1 0 0
18 1 10 0.09 34.899414353645604 4.0522150079483295 10.35663746404968 -1 0 0
159 1 1 0.29 19.28471047975224 6.5580337699824 10.44498837054293 1 0 0
24 1 8 -0.36 23.730472863096594 8.70151102896447 10.680893320497427 0 0 0
164 1 9 0.09 35.06837903739627 7.196095855097374 10.342442981686373 0 0 0
158 1 2 0.14 36.057998357103564 7.609084197937367 10.629158367384544 0 0 0
34 1 2 0.14 24.20061647019784 10.021353269791652 10.483700170226781 0 0 0
152 1 5 -0.65 36.33308374857674 8.707351523107148 9.788775363005826 0 0 0
35 1 2 0.14 23.056112279410627 10.951471162172895 10.495243285818539 0 0 0
42 1 2 0.14 23.529620051088 12.339720344301293 10.30801161166861 0 0 0
30 1 5 -0.65 22.438966717209208 13.230710994656691 10.376888273745989 0 0 0
55 1 9 0.09 24.900843984575918 2.2799379175824477 11.210835119345626 0 1 0
9 1 3 0.11 19.029058525109427 4.250015867240348 11.242317190889183 0 0 0
15 1 9 0.09 20.07878175166819 3.9740272682489044 11.009848793670551 0 0 0
1 1 6 0.04 18.93772928843321 5.6699476904482085 11.32966189281909 0 0 0
61 1 7 0.42 21.46977195242184 5.971152546430796 11.105336212918974 0 0 0
28 1 5 -0.65 21.744953781072812 6.884074571134277 10.99366357347229 0 0 0
143 1 10 0.09 29.583977086193595 7.220831542169355 11.983567570392658 0 0 0
150 1 6 0.04 18.90508706790215 5.452023914041095 11.26525080482373 1 0 0
165 1 9 0.09 20.268479486456418 6.9378790927989265 10.791463860110165 1 0 0
56 1 10 0.09 26.06948863755589 8.498818073491705 11.797933455624419 0 0 0
36 1 1 0.29 23.03722117981177 8.64474157267948 11.890051756425583 0 0 0
44 1 4 0.05 26.37043457038504 9.549146308480122 11.60217406507717 0 0 0
57 1 10 0.09 27.04369264777574 9.888831004589965 12.416724174916393 0 0 0
25 1 6 0.04 21.856645694394462 9.446084448367642 11.876179486339856 0 0 0
38 1 3 0.11 25.172570404927637 10.43360305509011 11.544320051062344 0 0 0
146 1 7 0.42 29.284032270088765 9.800210989382531 12.295056292673262 0 0 0
47 1 9 0.09 22.545735391139996 10.876912790533638 11.478095188577004 0 0 0
26 1 6 0.04 25.614341610022883 11.75958867615187 11.262500403105935 0 0 0
43 1 1 0.29 24.528586739674026 12.68353054756174 11.349257961859449 0 0 0
63 1 7 0.42 22.0238287027639 13.1506065254028 11.238767292311906 0 0 0
2 1 5 -0.65 18.728720939470115 13.688117802695183 12.498861089348209 0 -1 0
7 1 2 0.14 18.64351706350319 3.6540647608009658 12.560651404929848 0 0 0
154 1 5 -0.65 35.26884081479499 4.0069812094993695 13.117668881302574 0 0 0
13 1 9 0.09 35.40116203765236 3.936706913650361 12.805500982596092 -1 0 0
171 1 7 0.42 34.56888386870639 4.526658477574408 13.519660068251271 0 0 0
11 1 1 0.29 19.884790487174207 6.1747494281067326 12.271069120555202 0 0 0
17 1 9 0.09 20.90988466661214 5.864489093090123 11.979388455834378 0 0 0
49 1 9 0.09 23.50100952735874 6.566151132579949 12.016107481996261 0 0 0
72 1 5 -0.65 27.041330144937465 7.160656078845524 13.088363205131499 0 0 0
142 1 10 0.09 30.920841767922916 6.3387188533879275 12.819489200769928 0 0 0
144 1 7 0.42 31.785702127612087 6.295172562933673 13.332993609938804 0 0 0
147 1 7 0.42 33.18702442201311 5.174546815539074 12.883591772046515 0 0 0
114 1 5 -0.65 34.05666592869233 5.439862599969031 13.191702271436165 0 0 0
157 1 3 0.11 18.95158202071992 5.8122040829629436 12.645446608537767 1 0 0
163 1 9 0.09 19.958058536799793 6.217011002613121 12.880334676070495 1 0 0
5 1 8 -0.36 19.823864277887914 7.563128247443948 12.391903867012838 0 0 0
37 1 2 0.14 22.614598311406464 7.233588682549182 12.047078763199687 0 0 0
105 1 7 0.42 27.547011564450056 7.9761323830112465 13.118058573422461 0 0 0
129 1 4 0.05 30.255449576658282 7.225865019527501 12.867443757846651 0 0 0
161 1 9 0.09 34.72717771888706 6.4660505700102835 12.626933723526703 0 0 0
155 1 2 0.14 35.72505179837766 6.870073923528011 12.897373285296936 0 0 0
48 1 9 0.09 23.701670219011596 8.955004539584452 12.723344128548554 0 0 0
102 1 7 0.42 23.87615692174773 8.98437270177607 13.090252106108098 0 0 0
69 1 5 -0.65 24.462820685810215 8.224755250304376 13.070846789450504 0 0 0
136 1 9 0.09 27.809398271262808 8.354834693986287 13.353177509837131 0 0 0
117 1 5 -0.65 31.052181099907635 8.400723094028717 12.831261420700741 0 0 0
149 1 7 0.42 31.79250989872026 8.29497136126322 13.433210040068436 0 0 0
156 1 2 0.14 36.00968027325362 8.036642356526253 12.041785581645971 0 0 0
162 1 9 0.09 19.192337456766126 8.461849930903979 12.325152222489493 1 0 0
53 1 9 0.09 20.334116874626705 10.06001091066174 13.140660511963544 0 0 0
41 1 3 0.11 21.213856447972372 9.38314746896938 13.14706585878181 0 0 0
50 1 9 0.09 24.664752665554158 10.422135419652184 12.531274559508072 0 0 0
113 1 5 -0.65 29.937018521522997 9.77556525421796 12.998333056196367 0 0 0
151 1 5 -0.65 35.02753916592681 9.030727765716748 12.229877214521 0 0 0
31 1 8 -0.36 23.840659402117648 12.57904172795197 12.558424638129296 0 0 0
95 1 9 0.09 26.287835559335367 11.570100057819126 12.796563489937572 0 0 0
20 1 7 0.42 35.73145983634131 13.343886606168036 12.095039311301127 -1 -1 0
14 1 9 0.09 20.57639043162583 3.808529733292464 13.408359139995412 0 0 0
167 1 10 0.09 19.51901824147876 3.841614630180403 13.240991169460688 1 0 0
8 1 2 0.14 19.54491265465446 4.165043369244178 13.611024897920743 0 0 0
160 1 4 0.05 18.720078443839853 4.582195664193347 13.45387190065536 1 0 0
16 1 9 0.09 36.32603342679692 6.000282397878744 13.887562900134617 -1 0 0
10 1 2 0.14 19.53777456836138 5.644201631681502 13.61172228766577 0 0 0
51 1 9 0.09 21.555318441020326 6.01423040641341 13.433946411669705 0 0 0
96 1 9 0.09 25.62582241942802 6.151229329558723 14.179186442331224 0 0 0
84 1 2 0.14 26.206798884609405 7.096063122202989 14.223096438146062 0 0 0
137 1 9 0.09 28.85837724676537 6.254547718754038 14.148139003864124 0 0 0
126 1 2 0.14 33.968088692390616 5.815617844296552 14.547798175576586 0 0 0
39 1 2 0.14 21.90389676800023 7.063246300501271 13.332996195783835 0 0 0
77 1 2 0.14 25.273469488393506 8.241023450751257 14.224414028228502 0 0 0
125 1 3 0.11 29.442741640743883 7.197706890090861 14.115972702319189 0 0 0
111 1 5 -0.65 31.73312779429077 6.5656619709900905 14.252608217950005 0 0 0
131 1 9 0.09 33.368800601990415 7.787201041834398 14.072359818243811 0 0 0
52 1 9 0.09 20.26420238865232 7.901336212584722 14.377878936552415 0 0 0
40 1 2 0.14 20.746191732709562 7.978736191443795 13.380992455996058 0 0 0
65 1 7 0.42 23.878843839740036 9.261514106562638 13.405823693751692 0 0 0
89 1 9 0.09 25.860876247147395 9.182833217338787 14.223036354523948 0 0 0
124 1 2 0.14 28.500302063411308 8.35756801789832 14.221944457803769 0 0 0
132 1 9 0.09 31.68625707450359 8.435300312441605 14.19032472995669 0 0 0
45 1 4 0.05 22.181622327323755 9.850350657719954 14.179194728898675 0 0 0
67 1 6 0.04 24.979505096103395 10.440758935981185 13.934971860146407 0 0 0
123 1 2 0.14 29.27568512854282 9.614132912119157 14.233090406176792 0 0 0
135 1 9 0.09 28.590353600917876 10.475036787120677 14.37896514836312 0 0 0
168 1 7 0.42 35.01944854544819 9.291440241674099 13.153759931886745 0 0 0
58 1 10 0.09 22.481741102001358 10.900183385107832 13.979389991756593 0 0 0
70 1 5 -0.65 22.38762002706651 11.315046405257885 14.076208534488439 0 0 0
75 1 5 -0.65 27.525880472819548 10.680491970687557 14.953068458028149 0 0 0
83 1 3 0.11 25.7129355939519 11.648446718933409 13.742818348070358 0 0 0
87 1 4 0.05 26.66407886539778 11.806622344712508 14.87876061170528 0 0 0
100 1 10 0.09 27.278391211854 12.718869307979999 14.728628160491517 0 0 0
82 1 2 0.14 24.74190751991015 12.782282467380458 13.629771841969657 0 0 0
94 1 9 0.09 25.288646359045966 2.2948981994056794 13.470181842405985 0 1 0
3 1 5 -0.65 19.14092948951327 3.679567604045091 14.871649367345684 0 0 0
21 1 7 0.42 36.049500051990925 3.979851804164045 15.05022967708647 -1 0 0
138 1 9 0.09 33.59975342665028 4.945835189084471 15.130826258134828 0 0 0
166 1 10 0.09 18.730390187154548 4.8216412380104465 14.53767130545938 1 0 0
139 1 9 0.09 36.02796314014557 5.36921105299782 14.945210324365991 0 0 0
4 1 5 -0.65 20.454390807825153 6.125760006941084 14.568815070590894 0 0 0
22 1 7 0.42 21.336132537390654 5.826291561066927 14.335475058570697 0 0 0
85 1 1 0.29 27.03131504164765 7.1029650669004685 15.456119121259382 0 0 0
97 1 9 0.09 27.733027769710223 6.242962950372315 15.46535299199741 0 0 0
127 1 1 0.29 35.30738086627282 6.206868075396468 15.050820408089896 0 0 0
29 1 5 -0.65 22.77846885192347 7.346537466046562 14.402100741356055 0 0 0
88 1 9 0.09 23.83115897147631 7.274017435285274 15.434957946065897 0 0 0
76 1 2 0.14 24.43584675386736 8.204840275513575 15.436564883314192 0 0 0
109 1 6 0.04 30.333889324735384 7.228466099979198 15.228148781895909 0 0 0
119 1 2 0.14 33.018872898073326 6.937998900302324 14.695679180206167 0 0 0
115 1 8 -0.36 35.69566452350249 7.281689749657533 14.250799932738882 0 0 0
62 1 7 0.42 23.086378108724794 8.252316431495846 14.322414976049387 0 0 0
73 1 8 -0.36 27.739843577055833 8.30366878527703 15.413732567598421 0 0 0
120 1 1 0.29 31.152374226674862 8.395444860752077 15.162647063811583 0 0 0
103 1 7 0.42 21.947447196868513 10.477466842649266 14.238305196004982 0 0 0
33 1 5 -0.65 23.34105826636662 9.030602451228582 14.166795791356597 0 0 0
107 1 7 0.42 27.04046230902803 9.939199789687972 15.3224511060083 0 0 0
121 1 2 0.14 30.26708409055333 9.571549112078984 15.329820228417004 0 0 0
59 1 10 0.09 21.71357046590787 9.794135584481145 15.184099732617526 0 0 0
79 1 2 0.14 23.292100099266992 11.569268339368584 15.127566440339935 0 0 0
78 1 1 0.29 24.29479094938486 10.47856828036723 15.18681051872697 0 0 0
90 1 9 0.09 25.017937296124288 10.646799819993081 16.011946104959552 0 0 0
133 1 9 0.09 30.870192439289873 10.50342099254723 15.328380978727846 0 0 0
101 1 10 0.09 26.10995023048482 11.898756289667553 15.836115041783758 0 0 0
93 1 9 0.09 23.19934437903707 13.669109554518897 14.792352218316102 0 0 0
81 1 2 0.14 23.959921164551957 12.865322506621325 14.879117754754652 0 0 0
68 1 6 0.04 26.155170643816195 7.037551419343056 16.582569910326733 0 0 0
130 1 9 0.09 32.586280634854226 6.529365814967049 16.717179670948397 0 0 0
110 1 6 0.04 35.18016005267806 6.577384177746769 16.42455571524493 0 0 0
80 1 3 0.11 25.32353152820571 8.19522567152503 16.64147420972083 0 0 0
118 1 2 0.14 32.96737350973033 7.372106771889713 16.103449153277097 0 0 0
92 1 9 0.09 25.964814424607965 9.101217235716534 16.632520625415083 0 0 0
108 1 8 -0.36 32.06769805592057 8.458487841584589 16.21325094860528 0 0 0
134 1 9 0.09 34.74691769673977 8.542775271480732 15.923030501377841 0 0 0
66 1 8 -0.36 23.560307744659376 9.316096429632212 15.423356344277506 0 0 0
112 1 5 -0.65 29.584553259081485 9.473485366396385 16.559723108978393 0 0 0
91 1 9 0.09 22.726040131800076 11.614668944935838 16.081280347827605 0 0 0
104 1 7 0.42 24.29709387731561 13.225796230482965 16.762571191913068 0 0 0
71 1 5 -0.65 24.815551292863876 13.175059342009716 15.956196721510608 0 0 0
122 1 3 0.11 34.34732494840224 7.727369681525026 16.561413324454126 0 0 0
145 1 7 0.42 30.227226914189043 9.440139421593546 17.2720855647207 0 0 0
99 1 10 0.09 23.918706760149067 7.247645012827829 17.959426651509457 0 0 0
116 1 5 -0.65 33.9313122222532 7.1097041675969335 18.827153433978182 0 0 0
86 1 4 0.05 24.559291488262602 8.15330460870403 17.919850628485946 0 0 0
98 1 10 0.09 25.265818788607866 8.132695741072803 18.775722174498178 0 0 0
128 1 4 0.05 34.38608088914291 8.160018237186115 17.986630542950095 0 0 0
106 1 7 0.42 22.977913141943205 9.206978975167438 17.456464025047985 0 0 0
74 1 5 -0.65 23.73798900264781 9.306016916184822 18.034462846936503 0 0 0
140 1 10 0.09 33.72802287293678 9.042681450708338 18.12795088378474 0 0 0
141 1 10 0.09 35.42165503949724 8.431901501096561 18.27940730858973 0 0 0
60 1 7 0.42 22.561475427112516 10.662385490967305 18.63201350802265 0 0 -1

Velocities

6 0.0016017904176054074 0.0015343697957693715 0.0035557083606907692
23 0.009842643850050164 -0.001353072907138096 0.00507936226577972
148 -0.0025052781706467898 -0.008610998290879225 0.009961867313299956
153 0.000761194364723097 -0.00035727588899021656 -0.0019486840335783853
170 0.007851346749908637 -0.0037482007557144022 0.0016121760085400345
64 -0.007003083802144833 0.0012149613593554934 0.005848500796697058
32 0.006399685038228104 -0.0036564627530440963 0.0016818943921738934
46 0.01513121655227769 -0.009374808975160265 0.003363558167776168
169 0.0035693124856885088 -0.002886956494747415 0.0018501404731052838
27 -0.010738328810302174 0.0023243098089513765 -0.0035697176529742155
54 0.0014089851347871803 -0.00859864889633446 -0.011612562389484575
19 -0.005513505325842609 -0.005850248880344023 0.007315038490921236
12 -0.006760964673177969 -0.0019904848016662592 -0.00013571402236028178
18 -0.0065486957554596464 -0.011229532589244272 -0.005969793876993738
159 0.011937839352231779 -0.0019523202879789823 -0.003238230918983829
24 -0.007034465483968436 0.005878662312914334 0.0003667467939628076
164 -0.027581244548033325 0.03209120932849085 0.03767885836920114
158 -0.005586435613992517 0.002776347020598553 0.0012955935710473356
34 0.004111553651827921 -0.0004810556845543794 -0.0022486990888062365
152 0.0017392683964793563 -0.0022141622970635643 -0.0025163996397595794
35 -0.00776447138065806 0.0006870021436381241 -0.001194627637513033
42 -0.004372188567232719 -0.0019747426550262397 -0.007562751835233751
30 -0.009313440401097326 -0.0026784257750481167 -0.0012257193448118972
55 -0.006513184535917413 -0.0077923225452659894 -0.008733248853082283
9 0.006843215350883695 -0.0018554796186265135 0.0004957226467926229
15 0.010006063905033944 0.026337553679366535 0.0036224097849130252
1 -0.004203574161762255 -0.0024122346575433645 -0.006006734308377662
61 -0.00040240402177336206 0.0007303096059476751 -0.000286464777281259
28 -0.0037003640403678044 -0.000826466912668649 0.005667524192311783
143 0.0159588952029142 0.006699226695182151 -0.010573120846934791
150 0.002718989127105277 0.0007504109082741764 -0.003116130247092898
165 0.02772231829686786 -0.021656158981993648 -0.013718064899920458
56 0.02396384424318433 -0.002734157096538329 -0.010663513832082243
36 0.0011173629792611776 0.004118981983342093 -0.0035070698494336265
44 0.017165180042397518 0.0016933680970163724 0.0015357304833329122
57 0.02942048714682514 -0.015254521588061266 -0.007763640009350137
25 -0.004562324539554196 8.590174929080616e-05 -3.1476017525705796e-05
38 0.0063442309446270495 0.00687709547330861 0.00018342668145646175
146 -0.0003271649253211941 -0.0022333878629481113 -0.010219355571571493
47 -0.01541345378938755 0.007185028018501645 -0.0035664411140572906
26 0.01194140369566792 0.006986612384878397 0.011649283228056443
43 -0.003871775013309407 -0.003953204458521135 -0.004603146131942045
63 0.0013615378427484942 -0.007147762789393493 -0.008490142590373777
2 -0.0003957055557147039 0.0009514805248265434 0.000187906784964174
7 -0.009828057858007036 -0.0035075595298256087 0.0015620644599370333
154 -0.004566161494964129 0.0016311418165243015 -0.004122884571326312
13 -0.011176776160727344 -0.020022335956189102 -0.008917759858196702
171 -0.01862761531202253 0.0008687441744414775 -0.001536727036458457
11 -0.0022441399169344915 0.005217911041035424 -0.005434362753541108
17 -0.0025003650217561967 0.02209734023140644 0.003326835429231105
49 0.01774837926420726 0.020983524685948815 -0.021687976358346742
72 0.010065665271291277 -0.0059548338719198545 0.0036459697523866155
142 0.005557751373200696 0.000300018523025685 -0.008006484416942473
144 -0.03273662187609879 0.006841712622957069 0.003987182437155572
147 -0.006116075095303363 -0.00033938730933680256 -0.008060018083810837
114 0.004404659145039062 -0.0038657683816595927 0.00490026156725462
157 0.006777323953002159 -0.0031463494706031876 -0.0034652221900951193
163 0.012675404837792635 -0.007331667207376835 -0.032202800166926476
5 -0.009318256290104387 1.9870067217374334e-05 0.00686438553904515
37 0.004151995793725122 0.004383875726004939 -0.0032073487157784214
105 -0.00020832119705955398 -0.01157328022551807 0.004382581631585347
129 0.0034494052912400373 0.0006247347848401923 -0.0018689698939467658
161 -0.022554313886330987 0.019793047624953222 0.021732905829201354
155 -0.01204951152232571 0.0005569484930715479 0.0038407005321870104
48 0.009319414187402938 -0.004161110662468601 -0.012672102343577876
102 -0.006122474723172604 0.0062833857139033885 0.007867134891631938
69 -0.010776602408056161 0.002482862632548829 0.002254409244490188
136 -0.00980770053512846 0.007365235185558124 0.010466770273189464
117 0.005577873342025346 0.003198525080258126 -0.006087267279115958
149 0.013407644715643013 -0.004881703875855078 0.0073664611933458805
156 0.0029153984705426184 -0.0007380692717811775 -0.0024310829134810653
162 0.015508033549517531 0.011954376733260292 -0.036470694766397416
53 -0.0067021072882567515 -0.0062438698076617205 0.014438247062046028
41 -0.00165445573827456 -0.005874916806900579 0.00069522648432648
50 -0.026642441568864327 0.009688978208381509 -0.015196232861375178
113 -0.0013432823265285513 -0.0015078888918668109 -0.0014893672908758376
151 -0.003263224113588458 -0.004762996168036859 0.005053100342882813
31 -0.0023085900703112452 -0.0018093597870999603 0.0009053924912358114
95 0.020620269153027518 0.005959770334588666 0.017920551141071644
20 -0.00814032016674375 -0.0011362795834991436 -0.0013805407766215101
14 0.020799267345943874 0.03970644427869806 -0.001705714958001356
167 0.0073186279950826615 -0.0036991315129384214 -0.001759860754742332
8 0.005389544066377459 0.002806258877365639 0.0018940914682104304
160 0.003638839259205953 0.005214896928995792 0.0072178213031521225
16 -0.014947663569352381 -0.02471166883716829 0.00447606878755431
10 -0.004865477721887925 -0.004813005761868636 -2.6983697265767764e-05
51 -0.010437039052299715 -0.0016557251354368536 0.015044615609997758
96 -0.019031011567367362 0.009936970509741525 0.0005540614262242095
84 -0.002317441758657447 -0.0007392013231210796 -0.00015827760881446056
137 -0.008815249471355036 -0.0002103352985545025 -0.020329866469337408
126 -0.0013901359696893627 -0.000938990936001926 -0.002678213334223874
39 -0.0016707502684264832 -0.0037557783271433467 -0.0015338044227481815
77 0.0014648424803572401 -0.0030056965572248075 0.00034151576905014944
125 -0.005316658931511316 0.00516450453761159 -0.007586181650263559
111 -0.008588622086206062 0.003963557358294456 0.007952640778874627
131 0.00479768408483206 -0.006093521388447047 -0.012731754355942445
52 0.0006818580435685906 0.017439135382538055 -0.0034023650695177796
40 0.0011164582933747764 -0.001242412069743535 -0.001481736806476876
65 0.00948997783035133 0.0020422557407986258 -0.004058275437252105
89 0.024472429074038755 -0.02049684573895247 -0.0008727475190360371
124 -0.004993026295885653 0.0032640618152278925 -0.0012256472924811023
132 0.013458316171763861 0.007421882325009908 0.012579564236094904
45 -0.0006741384176615492 0.0006141493107948392 2.7980794310574332e-05
67 0.000926490906161816 0.0007798132482858316 -0.0022393629382812205
123 -0.005539577204354043 -0.00044014047629373053 -0.004275280291161071
135 -0.01628931119163978 -0.000999849942202973 -0.026453726929530873
168 -0.005092616663384197 0.0013595287701154736 -0.011298959658614388
58 -0.007351531450092286 0.005843448522676662 0.0059511599286366885
70 -0.012241328887419918 -0.00259078312770505 0.001159565649384006
75 0.014688614559020057 -0.004221575743819812 0.0069738214287681614
83 0.009203397354913469 -0.002480539775988108 0.008860312861849929
87 0.015121651073811082 -0.003318783395000058 -0.004202365945970212
100 0.019276147955573676 -0.006649317673349574 -0.000916522241382519
82 0.006713000394830749 -0.0011197255793776676 2.334063092621633e-05
94 0.008601040939496067 0.000898287108607751 -0.016260333617874344
3 -0.0014016254531528166 -0.0023684532540817625 -0.0037836833984486065
21 -0.011128486489811991 0.006041484392346722 -0.004993233911874393
138 -0.025189789140965282 0.005039325297706062 -0.01412580544137812
166 0.011281750922288296 0.01428268966671057 0.003923806008656968
139 0.03308981830975304 0.017138225030634373 0.015299807576056895
4 0.002744266102558065 0.0023184225938266364 -0.00426478777149843
22 0.01686676866956359 -0.0036683610312422937 -0.0015745427389787469
85 0.002448236180141686 0.003779462005166462 0.00013998626284876943
97 0.015869033430117613 0.011367626392517594 0.008249404635408294
127 0.015322433029816354 -0.00275620149870193 0.001952698707018051
29 0.0011328882378799365 0.004914933117294326 0.00026694107270474693
88 -0.01252758419147471 -0.0034793675787154034 -0.022757783218305013
76 -0.007868875017425085 -0.005599532581021507 0.0009768753562098566
109 0.0019687820439662227 0.0041724480826119004 -0.0062396399740009675
119 0.0038190125002076445 -0.0005162386972201081 0.005437468882245883
115 0.00575244849055324 -0.001480202565941464 0.0054930692686405574
62 0.00214533142567113 -0.0017049591565989535 -0.012384957357427416
73 -0.002353990522723374 0.0004586760747749544 -0.0017414259936515842
120 -0.00021074650257046917 0.005312497436836748 0.001630156342129951
103 0.007496679692991783 0.009252769500060262 0.010368695490234376
33 0.006268532432130514 -0.0016691551754908116 0.004109349261489201
107 0.017552407059838238 -0.0006633422240778787 0.0003441317636259968
121 -0.0036132089581353273 0.00046668020077487 -0.004210267598343694
59 -0.006871252684491597 -0.006924549135245923 0.006901196924910218
79 -0.010133541824681602 0.010999132644466968 0.004343935134800955
78 -0.0006594867794825327 0.005261186716388734 -0.004419049370278786
90 0.0044779014351885435 0.005043402089158266 -0.017899570374722354
133 0.0113908744682757 -0.011550576602381764 0.016628971829287503
101 0.007874089135346278 -0.009896519895449428 -0.002746493315055533
93 -0.001883510847665958 0.018977995055890748 0.0059326819483801595
81 -0.008341625283230446 9.232305782055285e-05 -0.003960589350778291
68 -0.004894182283551839 0.002617301985669864 -0.0006950049730830937
130 -0.01982950826655139 0.001550953732277322 -0.005456054789881769
110 0.011546032302149553 -5.637825679244402e-05 -0.0014851045566966275
80 -0.0037769190441069977 -0.0051458009580861545 0.0043927200320842625
118 -0.003391204927175709 -0.001973244143798333 0.004941269403582376
92 0.010857175135083752 -0.017591185206883256 0.006978163154617313
108 0.0029305967100228952 0.0004094557743235293 -0.0006411947322557534
134 0.021977961211848477 -0.0027904774849795465 0.015822863007185366
66 -0.0006164153185842995 0.0004976278993212191 0.0007952538590751118
112 -0.006872552674651141 0.002927271752390645 -0.006568505773543868
91 -0.014091961410132635 0.02385305109408823 -0.0014581192027299937
104 0.018522599463001672 0.004354127145218848 -0.0025620805844898164
71 -0.0018757102355610566 -0.006242554396681387 -0.003858434799811608
122 0.011752153932251555 -0.005278402209097051 0.002652384190983191
145 -0.008443562905697977 -0.0010486382573928173 -0.0008237010335928361
99 -0.00302807036190832 -0.006073086527377328 0.01350655909137614
116 3.853550127476311e-05 0.00022704167035371726 0.001270291184188902
86 -0.005725163079597109 -0.003949210850034689 -0.0006451123981792632
98 -0.00383298173366279 0.009060268986970455 -0.0024521317158571997
128 0.005524301307179009 -0.005421089184672878 -0.0035726600173114566
106 -0.013809045881383363 -0.00231531879610692 -0.0018129588545328828
74 -0.0006341228739524629 0.002471265627986361 0.000729880694399941
140 0.015685113817464204 0.00017673834356374678 -0.008421256095472358
141 0.0033722944420226148 -0.01846871552544755 0.00048418772519269416
60 -0.004768947397063037 -0.00027424410871054874 0.006579242640978155

Bonds

1 12 6 12
2 14 6 23
3 16 153 159
4 14 153 170
5 12 32 44
6 14 32 64
7 5 27 35
8 14 27 60
9 13 12 18
10 13 12 19
11 3 159 165
12 15 24 34
13 2 24 36
14 4 158 159
15 6 158 164
16 7 34 35
17 8 34 38
18 6 34 46
19 5 152 158
20 14 152 169
21 7 35 42
22 6 35 47
23 4 42 43
24 6 42 54
25 5 30 42
26 14 30 63
27 11 9 12
28 10 9 15
29 9 1 9
30 1 1 11
31 5 28 37
32 14 28 61
33 9 150 157
34 1 150 159
35 4 36 37
36 3 36 48
37 13 44 56
38 13 44 57
39 1 25 36
40 9 25 41
41 11 38 44
42 10 38 50
43 9 26 38
44 1 26 43
45 3 43 55
46 5 2 7
47 14 2 20
48 7 7 8
49 8 7 9
50 6 7 13
51 12 154 160
52 14 154 171
53 3 11 17
54 5 72 84
55 14 72 105
56 5 114 126
57 14 114 147
58 11 157 160
59 10 157 163
60 2 5 11
61 15 5 40
62 7 37 39
63 6 37 49
64 13 129 142
65 13 129 143
66 7 155 156
67 8 155 157
68 6 155 161
69 5 69 77
70 14 69 102
71 12 117 129
72 14 117 149
73 7 156 158
74 6 156 162
75 11 41 45
76 10 41 53
77 5 113 123
78 14 113 146
79 5 151 156
80 14 151 168
81 2 31 43
82 15 31 82
83 7 8 10
84 6 8 14
85 13 160 166
86 13 160 167
87 4 10 11
88 6 10 16
89 4 84 85
90 6 84 96
91 4 126 127
92 6 126 138
93 7 39 40
94 6 39 51
95 7 77 84
96 6 77 89
97 11 125 129
98 10 125 137
99 5 111 119
100 14 111 144
101 8 40 41
102 6 40 52
103 8 124 125
104 6 124 136
105 13 45 58
106 13 45 59
107 1 67 78
108 9 67 83
109 7 123 124
110 6 123 135
111 5 70 79
112 14 70 103
113 12 75 87
114 14 75 107
115 11 83 87
116 10 83 95
117 13 87 100
118 13 87 101
119 8 82 83
120 6 82 94
121 5 3 8
122 14 3 21
123 5 4 10
124 14 4 22
125 3 85 97
126 3 127 139
127 5 29 39
128 14 29 62
129 7 76 77
130 8 76 80
131 6 76 88
132 1 109 120
133 9 109 125
134 7 119 126
135 6 119 131
136 2 115 127
137 15 115 155
138 2 73 85
139 15 73 124
140 4 120 121
141 3 120 132
142 12 33 45
143 14 33 65
144 7 121 123
145 6 121 133
146 7 79 81
147 6 79 91
148 4 78 79
149 3 78 90
150 7 81 82
151 6 81 93
152 9 68 80
153 1 68 85
154 9 110 122
155 1 110 127
156 11 80 86
157 10 80 92