LAMMPS data file via write_data, version 29 Oct 2020, timestep = 26692

171 atoms
10 atom types
178 bonds
16 bond types
329 angles
37 angle types
472 dihedrals
61 dihedral types

17.58019577669284 36.482443578676964 xlo xhi
1.372527555338961 13.737582578498998 ylo yhi
8.850841926481815 20.807736940873188 zlo zhi

Masses

1 12.0107
2 12.0107
3 12.0107
4 12.0107
5 15.9994
6 15.9994
7 1.008
8 15.9994
9 1.008
10 1.008

Pair Coeffs # lj/cut/coul/cut

1 0.032 3.564
2 0.032 3.564
3 0.032 3.564
4 0.032 3.564
5 0.192 3.145
6 0.1 2.94
7 0.046 0.4
8 0.1 2.94
9 0.045 2.388
10 0.035 2.388

Bond Coeffs # harmonic

1 360 1.425
2 360 1.395
3 309 1.11
4 222.5 1.48
5 410 1.41
6 309 1.11
7 222.5 1.48
8 222.5 1.5
9 360 1.425
10 309 1.11
11 222.5 1.49
12 428 1.42
13 309 1.11
14 545 0.96
15 360 1.415
16 428 1.4

Angle Coeffs # harmonic

1 90 112
2 45 109.5
3 45 106
4 45 109.5
5 45 105
6 34.5 110.1
7 55 108.9
8 75.7 110.1
9 75.7 110.1
10 34.5 110.1
11 34.5 110.1
12 53.4 111
13 53.4 111
14 75.7 110.1
15 34.5 110.1
16 53.4 111
17 45 109.5
18 45 110
19 45 109
20 34.5 110.1
21 34.5 110.1
22 58.4 113.5
23 55 108.9
24 75.7 110.1
25 35.5 109
26 33.4 110.1
27 50 109
28 95 109.7
29 50 109
30 50 109.2
31 60 109.5
32 45 109.5
33 90 112
34 45 116.5
35 55 108.9
36 75.7 107
37 50 109

Dihedral Coeffs # fourier

1 1 0.41 1 180
2 3 0 1 0 0 2 0 0.284 3 0
3 3 0 1 0 0 2 0 0.2 3 0
4 1 0.05 1 180
5 3 0 1 0 0 2 0 0.284 3 0
6 3 0 1 0 0 2 0 1.6 3 0
7 1 2.75 1 180
8 3 0 1 0 0 2 0 0.2 3 0
9 3 2.65 1 180 0 2 0 0.13 3 180
10 3 0 1 0 0 2 0 0.2 3 0
11 3 0 1 0 0 2 0 0.2 3 0
12 3 0 1 0 0 2 0 0.14 3 0
13 3 0 1 0 0 2 0 0.2 3 0
14 3 0 1 0 0 2 0 0.2 3 0
15 3 0 1 0 0 2 0 0.18 3 0
16 3 0 1 0 0 2 0 0.2 3 0
17 3 0 1 0 0 2 0 0.2 3 0
18 3 0 1 0 0 2 0 0.19 3 180
19 3 0 1 0 0 2 0 0.2 3 0
20 3 0 1 0 0 2 0 0.2 3 0
21 3 0 1 0 0 2 0 0.2 3 0
22 3 0 1 0 0 2 0 0.2 3 0
23 3 0 1 0 0 2 0 0.19 3 180
24 3 0 1 0 0 2 0 0.2 3 0
25 3 0 1 0 0 2 0 0.2 3 0
26 3 0.29 1 0 0.62 2 0 0.05 3 0
27 3 0 1 0 0 2 0 0.31 3 180
28 3 0 1 0 0 2 0 0.2 3 0
29 3 0 1 0 0 2 0 0.2 3 0
30 3 1.36 1 180 0.16 2 0 1.01 3 0
31 3 0 1 0 0 2 0 0.2 3 0
32 3 0 1 0 0 2 0 0.2 3 0
33 3 0 1 0 0 2 0 0.2 3 0
34 3 0 1 0 0 2 0 0.2 3 0
35 3 0 1 0 0 2 0 0.2 3 0
36 3 0 1 0 0 2 0 0.2 3 0
37 3 0 1 0 0 2 0 0.284 3 0
38 3 0 1 0 0 2 0 0.2 3 0
39 3 0 1 0 0 2 0 0.2 3 0
40 3 0 1 0 0 2 0 0.2 3 0
41 3 0.75 1 180 0.17 2 0 0.25 3 180
42 3 0 1 0 0 2 0 0.2 3 0
43 3 0 1 0 0 2 0 0.14 3 0
44 3 0 1 0 0 2 0 0.2 3 0
45 3 0.29 1 0 0.62 2 0 0.05 3 0
46 3 0 1 0 0 2 0 0.18 3 0
47 3 0 1 0 0 2 0 0.284 3 0
48 3 0.13 1 180 0.25 2 180 0.06 3 180
49 3 0 1 0 0 2 0 0.2 3 0
50 3 2.65 1 180 0 2 0 0.13 3 180
51 3 0 1 0 0 2 0 0.2 3 0
52 3 1.36 1 180 0.16 2 0 1.01 3 0
53 3 0 1 0 0 2 0 0.2 3 0
54 3 0 1 0 0 2 0 0.2 3 0
55 3 0.41 1 180 0.89 2 0 0.05 3 0
56 3 1.55 1 0 1.17 2 0 1.07 3 0
57 3 0 1 0 0 2 0 0.18 3 0
58 3 0.29 1 0 0.62 2 0 0.05 3 0
59 3 2.65 1 180 0 2 0 0.13 3 180
60 3 0 1 0 0 2 0 0.14 3 0
61 3 0 1 0 0 2 0 0.2 3 0

Atoms # full

23 1 7 0.42 20.043063937775653 2.5289782083773935 8.907766423048962 0 0 0
6 1 5 -0.65 20.972149929155314 2.764077069955349 8.851840181380854 0 0 0
164 1 9 0.09 33.31019533946508 6.529580017237243 9.977405056715043 0 0 0
169 1 7 0.42 30.911289076406018 8.078706327650009 9.98385761792962 0 0 0
152 1 5 -0.65 31.49515424956903 7.41717930291454 9.605593880984284 0 0 0
53 1 9 0.09 19.30606835776322 8.3750347138684 9.8666825649578 0 0 0
153 1 5 -0.65 33.38764794353087 9.10525210847658 9.174574559107887 0 0 0
170 1 7 0.42 34.05851467426592 9.789726076717075 9.119499915492723 1 0 0
19 1 10 0.09 21.29743761119685 1.3736704305232539 10.348263892666195 0 0 0
12 1 4 0.05 21.615316597711384 2.398454593582551 10.063886730806399 0 0 0
18 1 10 0.09 22.7129527705898 2.4024714322669265 9.898724100035311 -1 0 0
13 1 9 0.09 19.268198824529524 3.820740539080858 10.577576799871006 -1 0 0
1 1 6 0.04 21.699974042091906 4.6630709293994865 10.710480142183961 0 0 0
5 1 8 -0.36 19.687151664546423 5.872467567945724 10.666502790425971 0 0 0
52 1 9 0.09 17.87479175269731 6.767481384841631 11.081192552881276 0 0 0
41 1 3 0.11 19.41690143193877 8.245740315815699 10.963541255828922 0 0 0
158 1 2 0.14 32.63969701628285 7.295485819552915 10.420033903776067 0 0 0
159 1 1 0.29 33.370639010379655 8.587298973348457 10.475126460054637 0 0 0
165 1 9 0.09 34.416423421828355 8.412978267370537 10.803831884513668 1 0 0
2 1 5 -0.65 19.33297502079455 2.0849125029568305 11.68101925354607 0 0 0
7 1 2 0.14 19.805122878182924 3.3932684844731154 11.449975906587689 0 0 0
9 1 3 0.11 21.26914804627488 3.369524888515481 11.139660782987884 0 0 0
15 1 9 0.09 21.818159833853674 3.093647834081959 12.064094612236536 0 0 0
11 1 1 0.29 20.916227537347794 5.701266646640334 11.30375293252119 0 0 0
151 1 5 -0.65 32.17900414039982 5.489583540895591 11.89710890351539 0 0 0
168 1 7 0.42 33.04041290037469 5.121270414335271 11.687536985968224 0 0 0
40 1 2 0.14 18.94875203540593 6.8735398738536135 11.340924933630328 0 0 0
61 1 7 0.42 21.23740230067243 6.074051864711057 11.535195909689582 0 0 0
17 1 9 0.09 21.488286292792303 6.652405986051744 11.290234920402462 0 0 0
156 1 2 0.14 32.24044097496774 6.893750660477282 11.784680194556039 0 0 0
161 1 9 0.09 34.2346249295224 7.2225509844218525 12.329343476675882 0 0 0
162 1 9 0.09 31.242237974039586 7.313859728490465 12.02798892326119 0 0 0
59 1 10 0.09 17.58199993416769 9.249500843560655 11.427405872433457 0 0 0
45 1 4 0.05 18.66442090000121 9.326190500966934 11.661037092554858 0 0 0
25 1 6 0.04 20.795085080188084 8.368877977556934 11.306902534212284 0 0 0
150 1 6 0.04 32.71131412600552 9.388066130103647 11.454642092976638 0 0 0
154 1 5 -0.65 35.346652118298174 9.407175265731784 12.351736740416916 0 0 0
58 1 10 0.09 19.03489921419345 10.319251387921344 11.331376826546428 0 0 0
46 1 9 0.09 23.004898355388285 9.698148790203776 11.662896555519222 0 0 0
64 1 7 0.42 25.97792047237232 9.923281601468926 11.774764676277796 0 0 0
32 1 5 -0.65 25.49044314537191 9.126412034296642 11.996044475063414 0 0 0
54 1 9 0.09 22.366330929439396 12.059397391585373 11.490940628220738 0 0 0
20 1 7 0.42 19.528289123327436 1.837742173947094 12.587859500065067 0 -1 0
21 1 7 0.42 17.636652012946296 4.0700563081236725 12.58768472554468 0 0 0
3 1 5 -0.65 18.28182987032003 4.780847990028974 12.598671789858637 0 0 0
8 1 2 0.14 19.576645348766945 4.224803482847416 12.647327525948574 0 0 0
22 1 7 0.42 22.09175041801267 4.061983295439293 12.804371117979526 0 0 0
51 1 9 0.09 18.851613887724007 5.650416907944006 13.076122960379179 0 0 0
10 1 2 0.14 20.59083294134219 5.296696405770378 12.686862083907943 0 0 0
39 1 2 0.14 19.136244006682517 6.685428547430864 12.79356924614416 0 0 0
37 1 2 0.14 20.552242567465726 6.928631700563631 13.144955997297583 0 0 0
16 1 9 0.09 20.204342515593282 6.155250045911881 13.274748805336614 0 0 0
28 1 5 -0.65 21.3564704168968 5.978326130369303 12.482961369728338 0 0 0
155 1 2 0.14 33.22405161596101 7.451708251414731 12.727248649040702 0 0 0
33 1 5 -0.65 18.84219093347924 9.21533708415472 13.065497605054023 0 0 0
48 1 9 0.09 20.328421534040228 9.062492102642775 13.220994216093667 0 0 0
36 1 1 0.29 20.952817401042235 8.291608026337354 12.723030819011884 0 0 0
24 1 8 -0.36 22.284808301164016 8.427760972187654 13.11455043505788 0 0 0
157 1 3 0.11 33.0455227529241 8.93806290648382 12.768109397516486 0 0 0
65 1 7 0.42 18.35613693028135 9.920803069078918 13.498705695407436 0 0 0
27 1 5 -0.65 20.530214599724808 10.336097759646021 12.213877907993732 0 0 0
34 1 2 0.14 22.750113728535965 9.711427018902103 12.743178222262232 0 0 0
160 1 4 0.05 34.26424123158266 9.655971363901187 13.236545861216978 0 0 0
171 1 7 0.42 36.121175548054566 9.880275919391712 12.664609283612236 0 0 0
60 1 7 0.42 19.83568548670945 10.977793159556985 12.379577411859827 0 0 -1
35 1 2 0.14 21.67345668695885 10.694784059561545 12.957142106050174 0 0 0
26 1 6 0.04 24.37038925176156 11.412459802547506 13.060296823781833 0 0 0
167 1 10 0.09 34.07179628008086 10.748730937670077 13.26722903372134 0 0 0
42 1 2 0.14 22.14202221718868 12.044068761339911 12.577932180083174 0 0 0
30 1 5 -0.65 21.131430266744765 12.991922790513414 12.839421474952918 0 0 0
55 1 9 0.09 23.736414613469325 13.401805375967378 13.036604008152699 0 0 0
14 1 9 0.09 19.666453171033698 3.6137759401415717 13.569650623152688 0 0 0
4 1 5 -0.65 21.75550141160041 4.8047894054035165 13.311101508496728 0 0 0
49 1 9 0.09 20.69280070509883 6.814611070004401 14.240101058992963 0 0 0
149 1 7 0.42 31.43347583062728 6.406227360466841 13.99306402860401 0 0 0
115 1 8 -0.36 33.099225633242376 6.856905699921535 14.005080174459744 0 0 0
139 1 9 0.09 35.08474374179805 7.156696850075975 14.454445107973589 0 0 0
29 1 5 -0.65 18.30924262291159 7.58310486741349 13.499505457998756 0 0 0
62 1 7 0.42 18.435711797736996 7.449574816058562 14.441723730938778 0 0 0
142 1 10 0.09 30.00365420016006 8.023160079805992 13.421343271170562 0 0 0
129 1 4 0.05 30.69744973985254 8.197067330646897 14.270168353261534 0 0 0
117 1 5 -0.65 31.779455919448697 7.28182629200048 14.18074537602904 0 0 0
56 1 10 0.09 24.799441795640437 8.17140082035467 13.692161388430149 0 0 0
143 1 10 0.09 31.09953559561866 9.2293831140213 14.201240226496646 0 0 0
163 1 9 0.09 32.19811437978472 9.184230990730368 13.441459471278598 0 0 0
166 1 10 0.09 34.543370845849005 9.310380793573591 14.253774359908235 0 0 0
38 1 3 0.11 23.956826023119838 10.128239925883282 13.523474837247761 0 0 0
44 1 4 0.05 25.10021753043172 9.186941846455301 13.360031320459287 0 0 0
57 1 10 0.09 25.966635652124 9.522840267968508 13.967149011136668 0 0 0
146 1 7 0.42 30.658500358804027 10.020828309962706 14.275817159911309 0 0 0
47 1 9 0.09 21.401358691035114 10.69865598193671 14.033268347454458 0 0 0
43 1 1 0.29 23.370620534238284 12.39632780076307 13.332085879056947 0 0 0
63 1 7 0.42 20.931577348325604 12.98474519233999 13.778360925656015 0 0 0
148 1 7 0.42 35.448145896336996 6.829986580411415 15.378483002281314 0 0 1
102 1 7 0.42 24.318226472803723 7.526096079064198 15.007364811492737 0 0 0
72 1 5 -0.65 27.4000012354394 7.730954064693423 14.690040907109333 0 0 0
105 1 7 0.42 28.08874367975529 7.07205233208858 14.57566278883754 0 0 0
127 1 1 0.29 34.073866124375364 7.383019579595677 14.853198745861283 0 0 0
69 1 5 -0.65 24.711012016481916 8.40193241399197 15.022538044799619 0 0 0
136 1 9 0.09 28.129479758201487 8.886304876009332 14.937900703802919 0 0 0
110 1 6 0.04 33.90469379993947 8.788674702615527 15.046168068679398 0 0 0
141 1 10 0.09 36.48063942120211 8.79544605734568 15.57032753364587 0 0 0
50 1 9 0.09 23.69333994072349 10.197002454833065 14.599554203301413 0 0 0
132 1 9 0.09 31.99739392806169 9.622666569550674 15.524648815025046 0 0 0
113 1 5 -0.65 29.95649902130295 10.648811659488539 14.461373175225354 0 0 0
31 1 8 -0.36 22.988491280035426 12.401633581337714 14.673717009400374 0 0 0
95 1 9 0.09 25.511628778993003 11.689097299171369 14.249783493885275 0 0 0
94 1 9 0.09 24.475720052688384 13.736439703314705 15.185807527448945 0 0 0
114 1 5 -0.65 33.322449096186936 5.412741410937927 15.933602366401399 0 0 0
96 1 9 0.09 26.27125025546451 6.461719431196084 15.842276965471898 0 0 0
137 1 9 0.09 29.5785901103558 6.993986634047522 15.623131701677186 0 0 0
126 1 2 0.14 33.856632895684484 6.698519058095953 16.15614115204384 0 0 0
138 1 9 0.09 34.821720379187184 6.599144627728251 16.695428534934525 0 0 0
116 1 5 -0.65 35.6199177227682 7.062244545419256 16.293988697369407 0 0 0
84 1 2 0.14 26.717346913768022 7.476644644282769 15.897273194932643 0 0 0
125 1 3 0.11 29.987587128511546 8.02445627583192 15.56878319281308 0 0 0
131 1 9 0.09 32.013617885306545 7.6792273243405695 16.39331020896034 0 0 0
128 1 4 0.05 35.805187122765936 8.466988978355065 16.387628051096893 0 0 0
77 1 2 0.14 25.639167219894162 8.470497106904892 16.081748505944997 0 0 0
124 1 2 0.14 28.869053183843622 9.00278632764645 15.757390312363484 0 0 0
122 1 3 0.11 34.49210499090344 9.16382676368271 16.285979571699645 0 0 0
89 1 9 0.09 26.08512177631119 9.486956268349788 16.087690654326593 0 0 0
123 1 2 0.14 29.41879870934562 10.37306261806803 15.735320127785927 0 0 0
120 1 1 0.29 31.535943391399123 9.488373410152303 16.52521303095112 0 0 0
134 1 9 0.09 34.653213883389185 10.261674594284626 16.315544179750976 0 0 0
67 1 6 0.04 24.718625556638735 10.44600500401793 15.705243139406312 0 0 0
100 1 10 0.09 27.189119066905896 11.278216923962647 15.978471537374515 0 0 0
135 1 9 0.09 28.608892219871997 11.10408863377318 15.939654272395133 0 0 0
83 1 3 0.11 25.209128194669923 11.727078262104738 15.317093590313963 0 0 0
87 1 4 0.05 26.40237617398222 12.041753529952 16.152101812143982 0 0 0
82 1 2 0.14 24.107563390202824 12.730000461082263 15.475014582513097 0 0 0
101 1 10 0.09 26.806935264444654 13.041867858241357 15.890944249566695 0 0 0
147 1 7 0.42 33.182300771259555 4.981752099983602 16.779892305817665 0 0 0
97 1 9 0.09 28.470053445476562 6.769162840671529 16.909328397444185 0 0 0
88 1 9 0.09 24.50099819299911 7.231556843594885 17.37018728586005 0 0 0
85 1 1 0.29 27.669329899135946 7.527623500426443 17.034545123373523 0 0 0
109 1 6 0.04 30.933584620437742 8.198233892696726 16.62096490907814 0 0 0
119 1 2 0.14 32.92574006814444 7.482457956717508 16.994488165088647 0 0 0
76 1 2 0.14 24.960241339365236 8.242099079177192 17.3698373211873 0 0 0
73 1 8 -0.36 28.215698478778585 8.8106475848676 16.997727094447715 0 0 0
118 1 2 0.14 33.54017905659623 8.771352201297562 17.371076924495107 0 0 0
140 1 10 0.09 36.27930514877569 8.701934706798946 17.3633906249302 0 0 0
108 1 8 -0.36 32.48625834447071 9.703129143050562 17.52361498533102 0 0 0
70 1 5 -0.65 22.17540931556566 10.975428341171646 16.521006672759718 0 0 0
79 1 2 0.14 23.275679269120793 11.387527850595255 17.300545016489092 0 0 0
78 1 1 0.29 24.402724339868776 10.446918721529283 17.096868760453788 0 0 0
121 1 2 0.14 30.476442678865777 10.49745878010983 16.761990667609894 0 0 0
133 1 9 0.09 30.911978636726055 11.517973790906819 16.7310464758273 0 0 0
103 1 7 0.42 21.449552162321968 11.589078213412693 16.655785103425636 0 0 0
93 1 9 0.09 22.812952659987037 13.44374858093711 17.001835833750906 0 0 0
81 1 2 0.14 23.6723049919715 12.750805253894704 16.8858913830355 0 0 0
111 1 5 -0.65 32.55013924923704 6.7637591064413956 18.14795944232862 0 0 0
144 1 7 0.42 33.332762119776056 6.588241287557981 18.67549611143169 0 0 0
68 1 6 0.04 26.94821085688036 7.283512340662738 18.24352282190446 0 0 0
66 1 8 -0.36 23.93779503496278 9.206414759177555 17.53392215473589 0 0 0
80 1 3 0.11 25.975395766239327 8.302375606382435 18.46738605122212 0 0 0
130 1 9 0.09 34.10149041350974 8.686537496787233 18.32493017873536 0 0 0
92 1 9 0.09 26.47892796620564 9.291421691727976 18.448861254692332 0 0 0
145 1 7 0.42 29.527189571479433 9.404565865192627 18.064135717477654 0 0 0
112 1 5 -0.65 29.905030659301964 10.28655595207956 18.03364639891676 0 0 0
91 1 9 0.09 22.974618520801577 11.39218385763411 18.36892732140909 0 0 0
90 1 9 0.09 25.289103263198328 10.752607271676078 17.69099577541933 0 0 0
75 1 5 -0.65 26.051785991617418 12.02777694245444 17.528070989396234 0 0 0
71 1 5 -0.65 24.727032016635032 13.209115637929049 17.701736034669633 0 0 0
107 1 7 0.42 25.56680722199734 12.829958263496776 17.735195880349636 0 0 0
104 1 7 0.42 24.43236774079847 13.22254777835163 18.615296402477224 0 0 0
98 1 10 0.09 24.85973334552279 7.10650801187614 19.855704697756206 0 0 0
106 1 7 0.42 26.88340868355361 7.279780068683225 20.77265482072184 0 0 0
86 1 4 0.05 25.380014594069575 8.08621971648143 19.81605127694389 0 0 0
99 1 10 0.09 24.648778364197156 8.891814091240365 20.0360769077482 0 0 0
74 1 5 -0.65 26.397125594480336 8.106803071212507 20.80673868597415 0 0 0

Velocities

23 0.00208662547329576 -0.021034181685900575 -0.03798622799483145
6 0.00198174232609955 -0.004066842888252122 0.005402051819188948
164 0.01303238647433336 0.03787655622171198 -0.011193573592005478
169 0.007702840427770779 0.008170697157182277 -0.0060878815272480645
152 -0.0026088500244321696 -0.0011462513614287437 0.005473736738305172
53 0.024824712797945164 0.03609048748178377 0.02410830454069194
153 -0.00023241336720467514 0.0012599354672476384 -0.011824124682115512
170 -0.01410397861834885 0.025319370680608105 0.009753082213025939
19 0.009121640447316823 -0.01405181988625464 0.030176034211621988
12 9.009785987175499e-05 -0.008357196444542185 -0.009070629699644199
18 -0.017603137866728562 0.014911813758801575 0.02763888072912902
13 0.0025211335600649467 0.01222979557094982 -0.0015647266083596992
1 0.0011431232281643305 0.0004608009228809762 -0.001765049035059676
5 0.0006147302850734446 0.0032133120541407044 0.00016345881161135061
52 0.0028395467269638087 -0.0008429949572928358 0.008441116927856188
41 -0.002391446731009829 -0.00456937073802994 0.008614321490064903
158 -0.0003915403457056688 -0.0076498007360705665 0.004200640510459367
159 -0.0005229152392839703 -0.005530439361629404 0.010214016484465339
165 0.006752457627563161 0.017632094050608896 0.00031422259737533525
2 0.0006311531751484541 -0.009653791103013062 -3.755533893987518e-05
7 0.0005706353701960035 0.0024202974642647808 -0.0034746693670383065
9 -0.005446907014102797 0.0040794015548746895 0.0014439204511237642
15 0.0005712647034693233 -0.012690104510365629 0.00213436495989113
11 -7.271378890838162e-05 0.002763457818045065 -0.0076867685682542085
151 0.005653340361154494 0.003063569951493976 0.0007170756739195085
168 -0.014795793134901241 0.013628337458783698 0.03418864291428677
40 0.009729826274230935 -0.003077599504360066 -0.001752937534505902
61 -0.008004177349001603 -0.010554754157342363 -0.036732053597892424
17 0.011417275682183845 0.03967367703597781 0.012661736729721321
156 0.010441491301582251 -0.001314802982852727 0.006053329516901939
161 0.01829030755975242 -0.018039371168153073 0.024246696889955947
162 -0.018541149413303485 -0.018987114434999793 0.007250522174077864
59 -0.011659352504091962 -0.014030285977979307 0.029056281595952294
45 -0.004320396033348947 0.0003354760964627216 0.013971828868332916
25 -0.00856646716825391 0.0006161709666012978 0.0016898145617534127
150 -0.002773296862490328 -0.009279940068188807 0.007171311788021149
154 0.005916771807375962 0.0009948028838893787 -0.005203110470350775
58 -0.012075413097966791 -0.012392035571436696 -0.005963290489561686
46 0.017124074450555214 -0.026168486855839508 -0.002429118878605015
64 -0.013454262198425673 0.0029780382240051926 -0.002344578391395705
32 -0.0025527106250749767 0.004830256215613588 -0.00692144603482077
54 0.033122836639576755 -0.01632839252040074 -0.0031592476304745133
20 0.011477049207046201 -0.01097539715750915 0.02333421313198183
21 0.0037060166762153427 0.0025268431661976095 0.0008367488493414366
3 0.0017912692179930254 -0.010939440249827128 0.0015280955845883713
8 0.005384167386877382 -9.649935046835952e-05 0.006204570049403988
22 -0.010176892300550876 -0.008615576681575575 -0.01983356561002584
51 -0.02786405447809585 -0.0015535385380552771 0.018258967794154764
10 -0.007482207132212844 0.005706418548661893 0.002542363197400417
39 -0.009415736929358667 -0.007626104016359091 -0.0036143570041034068
37 0.0010886769080821722 -0.005579334567778574 -0.0033219418027490653
16 0.003936815686742938 0.030751505272183916 0.026167899281657817
28 -0.0015398695771627327 -0.006204982054497053 -0.0009397083258366329
155 0.0010919994364745928 0.00928962827151304 -0.008498012663162033
33 0.003909227253891912 0.0014439938983995023 -0.006580095167357422
48 0.019778152965356528 -0.026333071069530145 0.016727700402754155
36 0.003943424504847153 0.0030401623883255288 0.0047184983913944045
24 0.0002501471390802765 -0.002958983097346894 -0.0027544890266672844
157 -0.0019321735387691438 -0.001536198472156138 0.001625420396514689
65 0.016933077937390198 -0.013929333398267373 -0.020401062168184658
27 0.004230974441893336 0.0024924660206843453 0.0014543908908581755
34 0.0038627933891026848 0.0008924604118684207 0.008619261711685667
160 -0.0038017157550024093 0.01274286525421994 0.0025195972850877314
171 -0.024136897122849804 0.015402969692667346 -0.0026804074533081524
60 0.00029230181133564626 -0.03834594583612677 0.009042976731016505
35 -0.008031777239424323 0.0011068304485955494 -0.01136215707109539
26 -0.0015692171497240508 -0.004866090744427987 0.005514954390246911
167 -0.005448961453271372 -0.0002739629649360897 0.009162544502998547
42 0.0012709734126823643 0.007201690173804285 -0.002836167702518177
30 -0.00530228889772485 -0.00034801997256060364 -0.005154974892927931
55 0.001531049179029251 -0.019788873546917985 -0.006099027438474681
14 -0.0037611575763264885 -0.009296479571605535 0.01616863738866461
4 -0.0010756636513668462 0.0011341445346903316 0.0026672123388246528
49 0.020532975912902655 0.006642125425825928 0.002833859494410422
149 -0.005099757898705651 0.012283884932272435 0.008726277230661494
115 0.0075520894087153555 -0.0024902568221364246 0.0006920209980626447
139 0.008787735908113483 0.016202081822735716 -0.004567600834869284
29 0.003939606755804225 0.0044518475689117355 -0.002737311408299665
62 0.008878533789846339 0.023945855471142346 -0.009470418167959729
142 -0.0032875668859149295 0.0017637680096810795 -0.031207852268875375
129 -0.002918432896044742 0.0003025155577657209 0.0005886923963394262
117 0.006044693997293728 0.0073392037144841046 -0.0055436992352505465
56 0.031899895954978504 0.028683503237497535 0.009263463025532806
143 0.01915989711261097 -0.010749964338371196 -0.018216008822044136
163 0.00235722100630926 -0.02546985950713318 -0.012581726466274663
166 0.008016167507174364 0.019538802206331203 -0.008977430755984329
38 0.0020695959419562396 0.006738270616459304 -0.0010306159716039266
44 -0.010619393405165847 0.0013296072633884742 -0.001634614697488836
57 -0.015409193368558699 0.010164755751925759 0.016398345502876527
146 -0.025914622447872716 -0.00737244880385169 0.004394388945608506
47 -0.011010802045664214 0.006411285211817972 -0.016923366192809885
43 -0.003386664868163511 0.0008658150465825337 -0.000993955353455685
63 -0.01543025607443824 -0.009517564503512075 0.005079239548814097
148 0.01011787291367164 0.02250049733201714 -0.000618162439403434
102 0.028418816373975198 0.007273874133850812 -0.01039715444477594
72 0.01019818468248357 -0.00816410016580206 -0.006080919411249195
105 -0.007750776017086779 0.0005895147810485836 0.029145115428416336
127 -0.0008768283272042139 0.00047032129537353563 0.007174011311020557
69 0.002465830421444197 0.0008391733950430602 -0.0009295369259020553
136 -0.007494703083365731 0.013635917781906566 -0.0018183669007140807
110 -0.0032107597995613356 0.006002654513671489 0.006521444648414838
141 0.004207031502839126 0.03162966693853645 -0.013742480577648491
50 0.042437185544050994 -0.0021539498898041462 -0.026352339231499024
132 0.01762662699415256 0.03263274309093938 -0.013428678566012202
113 -0.005178166452012632 -0.008379711290699 0.005358876185960439
31 0.0034745309985348286 -0.006036083349335707 0.0007467417474986242
95 0.01448770926339607 0.0023307733535657556 -0.014646052989469737
94 -0.029148455237347375 0.0019605414960173033 0.020650246806042147
114 -0.0035758333503898825 0.006359469210354857 -0.003978618550932107
96 0.0008649959635823332 0.016955149915822323 -0.010852604711238884
137 0.043123622519568354 -0.018537326847677917 -0.01534164217798455
126 -0.002135926867724388 -0.013656219828315807 0.007931802269731707
138 0.015102355340115132 0.004040381812258066 -0.005992048557948667
116 -0.005430097097260537 0.0030156401226457794 -0.002135839331707311
84 -0.007639794070469889 -0.0045232292750734815 0.011457856929174035
125 -0.00018591948237448334 -0.005895143054959832 0.009223310482029085
131 -0.005433539302995475 -0.0064456497581182725 0.016839538044555544
128 0.003839171617943446 -0.001514082394330797 -0.005128703379466488
77 0.005689811454763443 0.00037687787502187903 0.01117353025847362
124 -0.0010389018125753263 -0.001571670095920635 0.00010970342557142083
122 0.004184711570641993 2.6511221158904454e-05 -0.0005016140702290902
89 0.0028668572576859516 0.013245525561873247 -0.033164378923877025
123 0.00788829453168325 0.004940087594459979 0.003644209956089786
120 0.005880939617461268 0.0009454249160965811 -0.003828645043065208
134 -0.03561782669898153 0.0007476206419698931 0.015808532908163475
67 0.00660542482943966 -0.00312090921599983 0.00033192078014186374
100 -0.026357235831176724 0.008722790543584866 -0.010914604321187203
135 0.001779625370310939 0.0024626714813092863 -0.023490585365462145
83 -0.0032481915170717575 0.003560883231841078 -0.00683089154239301
87 0.0002689263524951256 -0.004997426971123327 0.00482749989436493
82 0.004157729725437034 -0.017408027411909582 0.011135754557804595
101 0.015479971542251175 -0.0024770821548598014 -0.0028256866143274734
147 -0.004477122526428616 0.011657692330692783 -0.004292005902401177
97 0.009766698398210419 0.024921340320422408 -0.01954801954985836
88 0.003928006908255343 -0.006813854116723409 -0.008192135826573584
85 -0.004229487127938927 0.006200216519208998 -0.008492073091021268
109 -0.0006208532218355803 0.0012489213538485365 -0.00024250850556959617
119 -0.004558687758572936 -0.002101566082651929 0.00042131155127701184
76 0.010883659139924711 -0.006460299752539518 0.0016062812646444288
73 0.0006339456388270923 0.0017265740002048887 -0.0006123268033358976
118 -0.007287386774827102 0.009536594188952965 0.0075877568213531185
140 -0.0061866277837984065 -0.003863219915575897 -0.01690420183945896
108 0.0015502358297579226 -0.001310555567958845 -0.003015612691389719
70 0.006334695960220322 -0.0026640639554953586 -0.0031909858167842287
79 0.01196053771570325 -0.0005032143025629909 -0.00479474782664506
78 0.0064138345295691014 -0.009306019335041292 -0.0006691220462446321
121 0.007547697120366755 -4.8017833538596027e-05 0.007999585569643617
133 0.0004757062802816104 -0.0052670845925514185 -0.015657364402145987
103 -0.007169693789685936 0.003034139842109665 -0.010910442672431112
93 0.008322672204499936 -0.009288858191148164 0.0015870144706525858
81 -0.0018864492811692505 0.013293939347861588 -0.008194965946459609
111 -0.00651130433812575 -0.0027705807580236217 0.002772426431398294
144 0.02260696205453778 0.00010257639011940298 0.008820936885528602
68 -0.0029354791655818806 0.004130648299091818 -0.002107635347902951
66 0.007155385978819235 -0.000837492196898738 0.0034964611693978284
80 -8.095281249960733e-05 0.00015198965449781895 -0.0024045898087329542
130 -0.0213737950250457 0.023458165754630063 0.01145885853641776
92 -0.006199041560031104 -0.00043640089885936106 0.004909034906692836
145 -0.013443626219185153 0.02945119311815283 -0.027026623737355412
112 -0.0008202500759475681 0.002448028448490498 0.00023478455716013805
91 -0.009412353194974644 0.008228805893922029 0.011446716752079603
90 -0.040041345539616996 -0.02154190906172919 -0.020799923109309424
75 -0.002038970743696411 0.008973317295922137 -0.0021278070852426695
71 -0.0013210075845939652 -0.0021537937219465947 -0.004003844505968013
107 -0.01807632059713328 0.007894664979791549 0.006777934844994598
104 -0.04097424826787412 0.019992539624531392 -0.008022562451182647
98 -0.014209406349891643 0.0012503529859672347 -0.0174330957591679
106 0.021563837041780224 -0.012716431176118224 0.0020227744757556963
86 -0.0019513361866393061 -0.002899173317822694 0.002138635682227946
99 0.0005962578478393634 -0.01638165463549781 -0.02953171077054592
74 0.0036016689957816808 0.008982448160371753 -0.00672163750042148

Bonds

1 12 6 12
2 14 6 23
3 5 152 158
4 14 152 169
5 16 153 159
6 14 153 170
7 13 12 18
8 13 12 19
9 9 1 9
10 1 1 11
11 2 5 11
12 15 5 40
13 11 41 45
14 10 41 53
15 4 158 159
16 6 158 164
17 3 159 165
18 5 2 7
19 14 2 20
20 7 7 8
21 8 7 9
22 6 7 13
23 11 9 12
24 10 9 15
25 3 11 17
26 5 151 156
27 14 151 168
28 8 40 41
29 6 40 52
30 7 156 158
31 6 156 162
32 13 45 58
33 13 45 59
34 1 25 36
35 9 25 41
36 9 150 157
37 1 150 159
38 12 154 160
39 14 154 171
40 12 32 44
41 14 32 64
42 5 3 8
43 14 3 21
44 7 8 10
45 6 8 14
46 4 10 11
47 6 10 16
48 7 39 40
49 6 39 51
50 7 37 39
51 6 37 49
52 5 28 37
53 14 28 61
54 7 155 156
55 8 155 157
56 6 155 161
57 12 33 45
58 14 33 65
59 4 36 37
60 3 36 48
61 15 24 34
62 2 24 36
63 11 157 160
64 10 157 163
65 5 27 35
66 14 27 60
67 7 34 35
68 8 34 38
69 6 34 46
70 13 160 166
71 13 160 167
72 7 35 42
73 6 35 47
74 9 26 38
75 1 26 43
76 4 42 43
77 6 42 54
78 5 30 42
79 14 30 63
80 5 4 10
81 14 4 22
82 2 115 127
83 15 115 155
84 5 29 39
85 14 29 62
86 13 129 142
87 13 129 143
88 12 117 129
89 14 117 149
90 11 38 44
91 10 38 50
92 13 44 56
93 13 44 57
94 3 43 55
95 5 72 84
96 14 72 105
97 3 127 139
98 5 69 77
99 14 69 102
100 9 110 122
101 1 110 127
102 5 113 123
103 14 113 146
104 2 31 43
105 15 31 82
106 5 114 126
107 14 114 147
108 4 126 127
109 6 126 138
110 12 116 128
111 14 116 148
112 4 84 85
113 6 84 96
114 11 125 129
115 10 125 137
116 13 128 140
117 13 128 141
118 7 77 84
119 6 77 89
120 8 124 125
121 6 124 136
122 11 122 128
123 10 122 134
124 7 123 124
125 6 123 135
126 4 120 121
127 3 120 132
128 1 67 78
129 9 67 83
130 11 83 87
131 10 83 95
132 13 87 100
133 13 87 101
134 8 82 83
135 6 82 94
136 3 85 97
137 1 109 120
138 9 109 125
139 7 119 126
140 6 119 131
141 7 76 77
142 8 76 80
143 6 76 88
144 2 73 85
145 15 73 124
146 7 118 119
147 8 118 122
148 6 118 130
149 15 108 118
150 2 108 120
151 5 70 79
152 14 70 103
153 7 79 81
154 6 79 91
155 4 78 79
156 3 78 90
157 7 121 123
158 6 121 133
159 7 81 82
160 6 81 93
161 5 111 119
162 14 111 144
163 9 68 80