LAMMPS data file via write_data, version 29 Oct 2020, timestep = 12647

171 atoms
10 atom types
178 bonds
16 bond types
329 angles
37 angle types
472 dihedrals
61 dihedral types

0.0 50.0 xlo xhi
0.0 20.0 ylo yhi
0.0 20.0 zlo zhi

Masses

1 12.0107
2 12.0107
3 12.0107
4 12.0107
5 15.9994
6 15.9994
7 1.008
8 15.9994
9 1.008
10 1.008

Pair Coeffs # lj/cut/coul/cut

1 0.032 3.564
2 0.032 3.564
3 0.032 3.564
4 0.032 3.564
5 0.192 3.145
6 0.1 2.94
7 0.046 0.4
8 0.1 2.94
9 0.045 2.388
10 0.035 2.388

Bond Coeffs # harmonic

1 360 1.425
2 360 1.395
3 309 1.11
4 222.5 1.48
5 410 1.41
6 309 1.11
7 222.5 1.48
8 222.5 1.5
9 360 1.425
10 309 1.11
11 222.5 1.49
12 428 1.42
13 309 1.11
14 545 0.96
15 360 1.415
16 428 1.4

Angle Coeffs # harmonic

1 90 112
2 45 109.5
3 45 106
4 45 109.5
5 45 105
6 34.5 110.1
7 55 108.9
8 75.7 110.1
9 75.7 110.1
10 34.5 110.1
11 34.5 110.1
12 53.4 111
13 53.4 111
14 75.7 110.1
15 34.5 110.1
16 53.4 111
17 45 109.5
18 45 110
19 45 109
20 34.5 110.1
21 34.5 110.1
22 58.4 113.5
23 55 108.9
24 75.7 110.1
25 35.5 109
26 33.4 110.1
27 50 109
28 95 109.7
29 50 109
30 50 109.2
31 60 109.5
32 45 109.5
33 90 112
34 45 116.5
35 55 108.9
36 75.7 107
37 50 109

Dihedral Coeffs # fourier

1 1 0.41 1 180
2 3 0 1 0 0 2 0 0.284 3 0
3 3 0 1 0 0 2 0 0.2 3 0
4 1 0.05 1 180
5 3 0 1 0 0 2 0 0.284 3 0
6 3 0 1 0 0 2 0 1.6 3 0
7 1 2.75 1 180
8 3 0 1 0 0 2 0 0.2 3 0
9 3 2.65 1 180 0 2 0 0.13 3 180
10 3 0 1 0 0 2 0 0.2 3 0
11 3 0 1 0 0 2 0 0.2 3 0
12 3 0 1 0 0 2 0 0.14 3 0
13 3 0 1 0 0 2 0 0.2 3 0
14 3 0 1 0 0 2 0 0.2 3 0
15 3 0 1 0 0 2 0 0.18 3 0
16 3 0 1 0 0 2 0 0.2 3 0
17 3 0 1 0 0 2 0 0.2 3 0
18 3 0 1 0 0 2 0 0.19 3 180
19 3 0 1 0 0 2 0 0.2 3 0
20 3 0 1 0 0 2 0 0.2 3 0
21 3 0 1 0 0 2 0 0.2 3 0
22 3 0 1 0 0 2 0 0.2 3 0
23 3 0 1 0 0 2 0 0.19 3 180
24 3 0 1 0 0 2 0 0.2 3 0
25 3 0 1 0 0 2 0 0.2 3 0
26 3 0.29 1 0 0.62 2 0 0.05 3 0
27 3 0 1 0 0 2 0 0.31 3 180
28 3 0 1 0 0 2 0 0.2 3 0
29 3 0 1 0 0 2 0 0.2 3 0
30 3 1.36 1 180 0.16 2 0 1.01 3 0
31 3 0 1 0 0 2 0 0.2 3 0
32 3 0 1 0 0 2 0 0.2 3 0
33 3 0 1 0 0 2 0 0.2 3 0
34 3 0 1 0 0 2 0 0.2 3 0
35 3 0 1 0 0 2 0 0.2 3 0
36 3 0 1 0 0 2 0 0.2 3 0
37 3 0 1 0 0 2 0 0.284 3 0
38 3 0 1 0 0 2 0 0.2 3 0
39 3 0 1 0 0 2 0 0.2 3 0
40 3 0 1 0 0 2 0 0.2 3 0
41 3 0.75 1 180 0.17 2 0 0.25 3 180
42 3 0 1 0 0 2 0 0.2 3 0
43 3 0 1 0 0 2 0 0.14 3 0
44 3 0 1 0 0 2 0 0.2 3 0
45 3 0.29 1 0 0.62 2 0 0.05 3 0
46 3 0 1 0 0 2 0 0.18 3 0
47 3 0 1 0 0 2 0 0.284 3 0
48 3 0.13 1 180 0.25 2 180 0.06 3 180
49 3 0 1 0 0 2 0 0.2 3 0
50 3 2.65 1 180 0 2 0 0.13 3 180
51 3 0 1 0 0 2 0 0.2 3 0
52 3 1.36 1 180 0.16 2 0 1.01 3 0
53 3 0 1 0 0 2 0 0.2 3 0
54 3 0 1 0 0 2 0 0.2 3 0
55 3 0.41 1 180 0.89 2 0 0.05 3 0
56 3 1.55 1 0 1.17 2 0 1.07 3 0
57 3 0 1 0 0 2 0 0.18 3 0
58 3 0.29 1 0 0.62 2 0 0.05 3 0
59 3 2.65 1 180 0 2 0 0.13 3 180
60 3 0 1 0 0 2 0 0.14 3 0
61 3 0 1 0 0 2 0 0.2 3 0

Atoms # full

62 1 7 0.42 16.178658415272203 7.337215890377009 7.987070333270246 0 0 0
29 1 5 -0.65 16.523249937093524 8.230010152797789 8.063063388817227 0 0 0
51 1 9 0.09 14.692868144097567 9.053490663738346 7.638538601762493 0 0 0
133 1 9 0.09 32.6149709297683 10.242857478256864 8.307937728035768 0 0 0
61 1 7 0.42 14.26225525276553 11.286855549791632 8.134692264732715 0 0 0
49 1 9 0.09 16.443235039056695 10.795966029500887 7.5854215593382515 0 0 0
93 1 9 0.09 22.380632383457076 10.69378754440122 8.277335186217497 0 0 0
91 1 9 0.09 24.575177394326456 11.733173852082738 7.822941424161974 0 0 0
145 1 7 0.42 31.18088238093429 12.021306584824153 8.02529131195972 0 0 0
103 1 7 0.42 22.6628798649283 12.993763238359213 8.053745086112306 0 0 0
141 1 10 0.09 36.02453023586336 12.996066522580165 8.2181647191897 0 0 0
148 1 7 0.42 38.059256529052206 14.064077237973308 7.9703612750495445 0 0 0
39 1 2 0.14 15.47321840802458 9.097945582662705 8.426686783309698 0 0 0
104 1 7 0.42 23.2844566001463 8.805030145655952 9.220918959055755 0 0 0
71 1 5 -0.65 23.885895831225373 9.533382849865456 9.049534459643366 0 0 0
37 1 2 0.14 15.985927309309723 10.480252658685199 8.54630392791854 0 0 0
48 1 9 0.09 17.84619216003586 9.87936837516045 9.433943515223522 0 0 0
135 1 9 0.09 30.222498468502994 10.090496444568702 8.904375564714341 0 0 0
28 1 5 -0.65 14.909749066438629 11.342180353724176 8.841297594454002 0 0 0
81 1 2 0.14 23.159828081862578 10.741952742041478 9.06640696222013 0 0 0
121 1 2 0.14 32.20574125754999 10.819319293181081 9.163696424710581 0 0 0
134 1 9 0.09 36.95892278762499 11.02311720650345 9.356187948380638 0 0 0
79 1 2 0.14 24.071254690785082 11.87645611217135 8.8015287484253 0 0 0
112 1 5 -0.65 31.84530190921373 12.105824604549412 8.71304388591135 0 0 0
70 1 5 -0.65 23.316486348992356 13.066448132487443 8.753112676062965 0 0 0
92 1 9 0.09 28.55116151115682 13.447715916033534 9.180171481339242 0 0 0
128 1 4 0.05 36.73791310994079 13.119004846012198 9.059633796139305 0 0 0
116 1 5 -0.65 38.04648281625654 13.287506585518788 8.53460835629269 0 0 0
99 1 10 0.09 26.996440892876766 15.28814546842097 8.673860345416328 0 0 0
74 1 5 -0.65 28.85599841663227 16.07238329703593 9.121511725782941 0 0 0
106 1 7 0.42 28.598542317773585 16.94748581172247 8.822326462041893 0 0 0
52 1 9 0.09 14.583477206532107 7.609418831563678 9.651678156337093 0 0 0
58 1 10 0.09 17.607821650298813 8.276440814396212 9.570383428414816 0 0 0
146 1 7 0.42 30.538752512925676 8.399084937080422 10.425524789322958 0 0 0
168 1 7 0.42 37.24153468022208 8.089095676315189 9.512511697101505 0 0 0
151 1 5 -0.65 37.257302906886224 7.308540335326618 10.071157244623082 0 0 0
162 1 9 0.09 39.25191856744004 7.549456803183046 10.479204274501821 0 0 0
40 1 2 0.14 14.899863511719007 8.671252948811667 9.718813752095755 0 0 0
113 1 5 -0.65 31.3272671405061 8.828142335963049 10.085298424587355 0 0 0
16 1 9 0.09 11.329445902211791 9.837332324441023 10.524513093451226 0 0 0
5 1 8 -0.36 13.764863543554805 9.473789431257396 9.983272601828165 0 0 0
123 1 2 0.14 31.001632837426826 10.142811291553386 9.693242510715223 0 0 0
36 1 1 0.29 16.99022079942784 10.557279756503956 9.63356387894486 0 0 0
47 1 9 0.09 19.761726647757463 10.741983909599934 9.7330882868875 0 0 0
82 1 2 0.14 22.521158968689257 10.92032086010837 10.385753062406405 0 0 0
90 1 9 0.09 25.685863189284156 11.049751962309507 9.950085655501807 0 0 0
89 1 9 0.09 27.782674975219898 11.352924740414972 10.102802834549907 0 0 0
120 1 1 0.29 33.23011876852426 10.939955025324807 10.228014928786875 0 0 0
24 1 8 -0.36 17.422980475707927 11.883364676986691 9.64914950421042 0 0 0
31 1 8 -0.36 21.691518135875764 12.064817421894242 10.322097111473605 0 0 0
78 1 1 0.29 25.082168860353747 11.978631561721278 9.880554163589803 0 0 0
73 1 8 -0.36 30.03819289603668 12.157353795357997 10.397607228063626 0 0 0
108 1 8 -0.36 34.32232580485088 11.565172467240822 9.626173326865649 0 0 0
122 1 3 0.11 36.69346883702521 11.923766267958493 9.94818928164343 0 0 0
50 1 9 0.09 19.811602558359063 13.145973516174067 9.512640508193485 0 0 0
38 1 3 0.11 19.243075310593653 13.256333655646248 10.459581537332046 0 0 0
66 1 8 -0.36 25.89733984499703 13.054408480845236 9.528092121733861 0 0 0
57 1 10 0.09 17.751065973236546 14.492768378954992 9.545567421469697 0 0 0
44 1 4 0.05 18.45158576301824 14.517603431290542 10.406238888664209 0 0 0
80 1 3 0.11 28.06975384891594 14.00392768955641 10.011420962422566 0 0 0
140 1 10 0.09 36.4641354072252 14.02826432636505 9.634431097715266 0 0 0
32 1 5 -0.65 19.319819856108456 15.632050652314812 10.26279147295464 0 0 0
86 1 4 0.05 27.69573074788418 15.364387034751568 9.532510935752597 0 0 0
64 1 7 0.42 18.795207894631204 16.43559435813923 10.236335673472514 0 0 0
98 1 10 0.09 27.20266162514404 15.931001864643184 10.349781161207384 0 0 0
152 1 5 -0.65 38.58572483222141 5.093536465097688 11.13341230719864 0 0 0
18 1 10 0.09 11.106833522839198 5.67696032353905 11.564271867729607 0 0 0
23 1 7 0.42 13.257870186663569 5.250258392644848 11.168485558547891 0 0 0
169 1 7 0.42 39.42328791877619 5.18170402907278 10.672635876555011 0 0 0
33 1 5 -0.65 16.79463346898957 6.614434784235318 10.486175760962672 0 0 0
65 1 7 0.42 16.63257448933704 6.298668888136968 11.378156084316563 0 0 0
1 1 6 0.04 12.734494343647167 7.722949553982468 11.152291942510187 0 0 0
45 1 4 0.05 17.14961509827063 7.988315607886772 10.539470596858811 0 0 0
59 1 10 0.09 17.894496988272845 8.13741068962738 11.348805146505216 0 0 0
156 1 2 0.14 38.28934407683732 7.4453859585511015 11.022084863739027 0 0 0
11 1 1 0.29 13.192236487291268 9.074845084389473 11.191150202950665 0 0 0
41 1 3 0.11 15.938613108340247 8.82010572004516 10.787861039094594 0 0 0
142 1 10 0.09 32.46189987272017 9.120391290506161 11.52674529017611 0 0 0
10 1 2 0.14 12.019224505160608 9.96145990011689 11.385268152663778 0 0 0
25 1 6 0.04 16.340827854599805 10.18641141495202 10.848963446812407 0 0 0
27 1 5 -0.65 18.47223827425818 9.695697759941137 10.934337984902044 0 0 0
94 1 9 0.09 21.89548296335072 10.03335350690952 10.617957370302767 0 0 0
87 1 4 0.05 24.47982317710875 9.882954650970698 11.520981935185285 0 0 0
100 1 10 0.09 24.97598559689684 9.711979850285086 10.542876085270075 0 0 0
136 1 9 0.09 29.626372685231857 10.347408442132355 11.297858516998815 0 0 0
132 1 9 0.09 33.52618622646876 9.941069519527689 10.610991543493874 0 0 0
131 1 9 0.09 35.61570949368417 9.640274207731355 10.810049047593182 0 0 0
115 1 8 -0.36 38.01634094879748 9.78512840438983 11.001633213921382 0 0 0
4 1 5 -0.65 12.438644401545304 11.306902829513195 11.42966424518272 0 0 0
35 1 2 0.14 19.250804601940594 10.850144720702673 10.71255705672103 0 0 0
83 1 3 0.11 23.586183486543916 11.071613493346456 11.428273008366082 0 0 0
69 1 5 -0.65 26.271708577664796 11.15288538271414 11.473005321190064 0 0 0
124 1 2 0.14 30.484234872100114 10.894481390790334 10.854142388492217 0 0 0
119 1 2 0.14 35.40094493084993 10.527007308769683 11.442252020153097 0 0 0
34 1 2 0.14 18.389789522671926 12.045429828499884 10.669561826367207 0 0 0
43 1 1 0.29 21.05982623199864 12.242629734582634 11.553102534422374 0 0 0
67 1 6 0.04 24.38584245449626 12.206700166495136 11.105122761918604 0 0 0
77 1 2 0.14 27.356402359827246 11.899907771197475 10.96952133686798 0 0 0
109 1 6 0.04 32.67015495951378 11.724977784055447 11.279977802533658 0 0 0
130 1 9 0.09 35.11807831908386 12.60302452483658 11.21658459125272 0 0 0
118 1 2 0.14 35.353341273075685 11.722943505638087 10.58238601838271 0 0 0
110 1 6 0.04 37.66231889309623 12.10145838656254 10.97989870911777 0 0 0
26 1 6 0.04 20.164710660846875 13.35623453744665 11.543682485957174 0 0 0
88 1 9 0.09 26.452819026203528 13.758573450671703 11.381564612285688 0 0 0
76 1 2 0.14 26.896450996025646 13.22439841887406 10.515569341815603 0 0 0
85 1 1 0.29 29.524977148179424 12.879640454844512 11.475075426436511 0 0 0
56 1 10 0.09 17.86796515968121 14.638042149252868 11.342711493132711 0 0 0
68 1 6 0.04 29.00878017025189 14.150466012525856 11.075103127278002 0 0 0
6 1 5 -0.65 13.03550452036684 5.163727845086705 12.098360025470281 0 0 0
12 1 4 0.05 11.848463606797523 5.897778830395878 12.360089000726148 0 0 0
164 1 9 0.09 37.38618934184845 6.1391581318846375 12.421800384382514 0 0 0
158 1 2 0.14 38.356788282218524 6.257015557472983 11.896304214286493 0 0 0
165 1 9 0.09 40.390464342351464 6.599207313076471 12.377576005790537 0 0 0
13 1 9 0.09 10.199783855571706 7.999471128176862 11.809394568420222 0 0 0
7 1 2 0.14 10.926397867523969 8.192420930265884 12.626035339853503 0 0 0
9 1 3 0.11 12.147640486579254 7.356919545292627 12.398834105017816 0 0 0
17 1 9 0.09 13.922361990598594 9.202820946011835 12.017369990664864 0 0 0
53 1 9 0.09 15.495174485584664 8.532752888827272 11.764022037541464 0 0 0
75 1 5 -0.65 23.72306004546749 8.729337503279648 11.85695452344407 0 0 0
161 1 9 0.09 37.096139072418715 8.551231758852369 12.369296589322419 0 0 0
155 1 2 0.14 38.06925896424439 8.649772706176824 11.84448304858871 0 0 0
163 1 9 0.09 40.13885393344938 8.81338754925227 12.355704771237763 0 0 0
8 1 2 0.14 11.29927861511613 9.619842858912397 12.631486639122635 0 0 0
60 1 7 0.42 18.02499387330879 9.778013234779797 11.77979440120821 0 0 0
30 1 5 -0.65 21.130349362172343 9.884903155556751 11.770879016913698 0 0 0
63 1 7 0.42 21.780744652057304 9.990680789039875 12.469017244543695 0 0 0
101 1 10 0.09 25.25762315185372 10.042775853701485 12.296601013434993 0 0 0
129 1 4 0.05 32.06845612684901 9.719497376302744 12.374315311208784 0 0 0
144 1 7 0.42 34.200686530285445 9.537279706550697 12.613105194207796 0 0 0
111 1 5 -0.65 34.15506376305593 10.328984131852504 12.07206645269213 0 0 0
22 1 7 0.42 13.036273867035879 11.423651973089662 12.171829105353046 0 0 0
42 1 2 0.14 20.272110856715955 11.003619292864322 11.769688811449138 0 0 0
95 1 9 0.09 23.104529856402287 11.24105696312916 12.413868144786852 0 0 0
102 1 7 0.42 25.894454712156524 11.616892830462229 12.22398893565064 0 0 0
72 1 5 -0.65 28.885127782394264 10.790134788085796 12.389321485921547 0 0 0
125 1 3 0.11 31.574019639067906 11.032491597510658 11.872641395517693 0 0 0
126 1 2 0.14 36.477174045282595 10.670815474458582 12.44484672205158 0 0 0
127 1 1 0.29 37.77825969864053 10.92073367597715 11.776066437549462 0 0 0
139 1 9 0.09 38.58645192297698 11.045976549298995 12.526559612784999 0 0 0
46 1 9 0.09 17.86603530078517 12.13691680026514 11.643939389225444 0 0 0
55 1 9 0.09 21.817063475486286 12.370167493903576 12.354616982812695 0 0 0
84 1 2 0.14 28.405835210043858 12.057169919653163 11.998168508314578 0 0 0
97 1 9 0.09 30.307685210836762 13.014106357757662 12.250566696099893 0 0 0
19 1 10 0.09 11.434908422704044 5.574144874322358 13.338011950673533 0 0 0
153 1 5 -0.65 39.542442956630715 5.2076559207741 13.591196124011331 0 0 0
159 1 1 0.29 39.43000986296541 6.422977451078705 12.905373178238053 0 0 0
15 1 9 0.09 12.880145454450487 7.552866678196479 13.209476849358794 0 0 0
150 1 6 0.04 39.13486947333095 7.582372240869665 13.685211610667302 0 0 0
107 1 7 0.42 23.498306220599755 8.763688699057887 12.78964180504547 0 0 0
117 1 5 -0.65 31.007953230555675 9.001435097873943 12.987602281740775 0 0 0
157 1 3 0.11 39.15668061605388 8.752985460205192 12.869305483240185 0 0 0
21 1 7 0.42 9.696332362479712 10.19462372786392 13.575556638412412 0 0 0
14 1 9 0.09 11.963353209494404 9.817394234715824 13.498710781860924 0 0 0
143 1 10 0.09 32.87968081703585 9.869293616558327 13.11699699596378 0 0 0
114 1 5 -0.65 36.55887816794983 9.5018777092267 13.229071268328934 0 0 0
3 1 5 -0.65 10.145159351327958 10.419999629003145 12.75741190264097 0 0 0
54 1 9 0.09 19.76823006377854 11.06167224299133 12.757026385059188 0 0 0
105 1 7 0.42 29.556534269118085 10.90513384796127 13.065774334499185 0 0 0
137 1 9 0.09 31.194121404543928 11.62816383807188 12.728767147615619 0 0 0
138 1 9 0.09 36.24151564939698 11.526267721748777 13.111755823753663 0 0 0
167 1 10 0.09 39.06218077088239 10.869198941878711 13.153864497427044 0 0 0
96 1 9 0.09 27.971324537471755 12.559076828201237 12.887770078817761 0 0 0
170 1 7 0.42 38.67890968374751 4.95785279411844 13.928106642083527 0 0 0
2 1 5 -0.65 10.326284457938163 7.845312327113383 13.85383010537278 0 0 0
20 1 7 0.42 10.782536803688188 8.301461580723736 14.564717915212054 0 0 0
149 1 7 0.42 30.83049841357084 9.382561377731628 13.850650672390739 0 0 0
147 1 7 0.42 37.252310746635274 9.612515358612155 13.883678408824046 0 0 0
166 1 10 0.09 38.019145864622196 9.908764526906696 14.273688226252405 0 0 0
160 1 4 0.05 39.001146270350205 9.939441559868142 13.757127881687497 0 0 0
154 1 5 -0.65 40.033016852013766 9.956826803592527 14.732494823144188 0 0 0
171 1 7 0.42 39.840272007847105 9.297562354686056 15.403180559234407 0 0 0

Velocities

62 0.0 0.0 0.0
29 0.0 0.0 0.0
51 0.0 0.0 0.0
133 0.0 0.0 0.0
61 0.0 0.0 0.0
49 0.0 0.0 0.0
93 0.0 0.0 0.0
91 0.0 0.0 0.0
145 0.0 0.0 0.0
103 0.0 0.0 0.0
141 0.0 0.0 0.0
148 0.0 0.0 0.0
39 0.0 0.0 0.0
104 0.0 0.0 0.0
71 0.0 0.0 0.0
37 0.0 0.0 0.0
48 0.0 0.0 0.0
135 0.0 0.0 0.0
28 0.0 0.0 0.0
81 0.0 0.0 0.0
121 0.0 0.0 0.0
134 0.0 0.0 0.0
79 0.0 0.0 0.0
112 0.0 0.0 0.0
70 0.0 0.0 0.0
92 0.0 0.0 0.0
128 0.0 0.0 0.0
116 0.0 0.0 0.0
99 0.0 0.0 0.0
74 0.0 0.0 0.0
106 0.0 0.0 0.0
52 0.0 0.0 0.0
58 0.0 0.0 0.0
146 0.0 0.0 0.0
168 0.0 0.0 0.0
151 0.0 0.0 0.0
162 0.0 0.0 0.0
40 0.0 0.0 0.0
113 0.0 0.0 0.0
16 0.0 0.0 0.0
5 0.0 0.0 0.0
123 0.0 0.0 0.0
36 0.0 0.0 0.0
47 0.0 0.0 0.0
82 0.0 0.0 0.0
90 0.0 0.0 0.0
89 0.0 0.0 0.0
120 0.0 0.0 0.0
24 0.0 0.0 0.0
31 0.0 0.0 0.0
78 0.0 0.0 0.0
73 0.0 0.0 0.0
108 0.0 0.0 0.0
122 0.0 0.0 0.0
50 0.0 0.0 0.0
38 0.0 0.0 0.0
66 0.0 0.0 0.0
57 0.0 0.0 0.0
44 0.0 0.0 0.0
80 0.0 0.0 0.0
140 0.0 0.0 0.0
32 0.0 0.0 0.0
86 0.0 0.0 0.0
64 0.0 0.0 0.0
98 0.0 0.0 0.0
152 0.0 0.0 0.0
18 0.0 0.0 0.0
23 0.0 0.0 0.0
169 0.0 0.0 0.0
33 0.0 0.0 0.0
65 0.0 0.0 0.0
1 0.0 0.0 0.0
45 0.0 0.0 0.0
59 0.0 0.0 0.0
156 0.0 0.0 0.0
11 0.0 0.0 0.0
41 0.0 0.0 0.0
142 0.0 0.0 0.0
10 0.0 0.0 0.0
25 0.0 0.0 0.0
27 0.0 0.0 0.0
94 0.0 0.0 0.0
87 0.0 0.0 0.0
100 0.0 0.0 0.0
136 0.0 0.0 0.0
132 0.0 0.0 0.0
131 0.0 0.0 0.0
115 0.0 0.0 0.0
4 0.0 0.0 0.0
35 0.0 0.0 0.0
83 0.0 0.0 0.0
69 0.0 0.0 0.0
124 0.0 0.0 0.0
119 0.0 0.0 0.0
34 0.0 0.0 0.0
43 0.0 0.0 0.0
67 0.0 0.0 0.0
77 0.0 0.0 0.0
109 0.0 0.0 0.0
130 0.0 0.0 0.0
118 0.0 0.0 0.0
110 0.0 0.0 0.0
26 0.0 0.0 0.0
88 0.0 0.0 0.0
76 0.0 0.0 0.0
85 0.0 0.0 0.0
56 0.0 0.0 0.0
68 0.0 0.0 0.0
6 0.0 0.0 0.0
12 0.0 0.0 0.0
164 0.0 0.0 0.0
158 0.0 0.0 0.0
165 0.0 0.0 0.0
13 0.0 0.0 0.0
7 0.0 0.0 0.0
9 0.0 0.0 0.0
17 0.0 0.0 0.0
53 0.0 0.0 0.0
75 0.0 0.0 0.0
161 0.0 0.0 0.0
155 0.0 0.0 0.0
163 0.0 0.0 0.0
8 0.0 0.0 0.0
60 0.0 0.0 0.0
30 0.0 0.0 0.0
63 0.0 0.0 0.0
101 0.0 0.0 0.0
129 0.0 0.0 0.0
144 0.0 0.0 0.0
111 0.0 0.0 0.0
22 0.0 0.0 0.0
42 0.0 0.0 0.0
95 0.0 0.0 0.0
102 0.0 0.0 0.0
72 0.0 0.0 0.0
125 0.0 0.0 0.0
126 0.0 0.0 0.0
127 0.0 0.0 0.0
139 0.0 0.0 0.0
46 0.0 0.0 0.0
55 0.0 0.0 0.0
84 0.0 0.0 0.0
97 0.0 0.0 0.0
19 0.0 0.0 0.0
153 0.0 0.0 0.0
159 0.0 0.0 0.0
15 0.0 0.0 0.0
150 0.0 0.0 0.0
107 0.0 0.0 0.0
117 0.0 0.0 0.0
157 0.0 0.0 0.0
21 0.0 0.0 0.0
14 0.0 0.0 0.0
143 0.0 0.0 0.0
114 0.0 0.0 0.0
3 0.0 0.0 0.0
54 0.0 0.0 0.0
105 0.0 0.0 0.0
137 0.0 0.0 0.0
138 0.0 0.0 0.0
167 0.0 0.0 0.0
96 0.0 0.0 0.0
170 0.0 0.0 0.0
2 0.0 0.0 0.0
20 0.0 0.0 0.0
149 0.0 0.0 0.0
147 0.0 0.0 0.0
166 0.0 0.0 0.0
160 0.0 0.0 0.0
154 0.0 0.0 0.0
171 0.0 0.0 0.0

Bonds

1 5 29 39
2 14 29 62
3 7 39 40
4 6 39 51
5 5 71 81
6 14 71 104
7 7 37 39
8 6 37 49
9 5 28 37
10 14 28 61
11 7 81 82
12 6 81 93
13 7 121 123
14 6 121 133
15 7 79 81
16 6 79 91
17 5 112 121
18 14 112 145
19 5 70 79
20 14 70 103
21 13 128 140
22 13 128 141
23 12 116 128
24 14 116 148
25 12 74 86
26 14 74 106
27 5 151 156
28 14 151 168
29 8 40 41
30 6 40 52
31 5 113 123
32 14 113 146
33 2 5 11
34 15 5 40
35 7 123 124
36 6 123 135
37 4 36 37
38 3 36 48
39 8 82 83
40 6 82 94
41 4 120 121
42 3 120 132
43 15 24 34
44 2 24 36
45 2 31 43
46 15 31 82
47 4 78 79
48 3 78 90
49 2 73 85
50 15 73 124
51 15 108 118
52 2 108 120
53 11 122 128
54 10 122 134
55 11 38 44
56 10 38 50
57 15 66 76
58 2 66 78
59 13 44 56
60 13 44 57
61 11 80 86
62 10 80 92
63 12 32 44
64 14 32 64
65 13 86 98
66 13 86 99
67 5 152 158
68 14 152 169
69 12 33 45
70 14 33 65
71 9 1 9
72 1 1 11
73 13 45 58
74 13 45 59
75 7 156 158
76 6 156 162
77 3 11 17
78 11 41 45
79 10 41 53
80 4 10 11
81 6 10 16
82 1 25 36
83 9 25 41
84 5 27 35
85 14 27 60
86 13 87 100
87 13 87 101
88 2 115 127
89 15 115 155
90 5 4 10
91 14 4 22
92 7 35 42
93 6 35 47
94 11 83 87
95 10 83 95
96 5 69 77
97 14 69 102
98 8 124 125
99 6 124 136
100 7 119 126
101 6 119 131
102 7 34 35
103 8 34 38
104 6 34 46
105 3 43 55
106 1 67 78
107 9 67 83
108 7 77 84
109 6 77 89
110 1 109 120
111 9 109 125
112 7 118 119
113 8 118 122
114 6 118 130
115 9 110 122
116 1 110 127
117 9 26 38
118 1 26 43
119 7 76 77
120 8 76 80
121 6 76 88
122 3 85 97
123 9 68 80
124 1 68 85
125 12 6 12
126 14 6 23
127 13 12 18
128 13 12 19
129 4 158 159
130 6 158 164
131 7 7 8
132 8 7 9
133 6 7 13
134 11 9 12
135 10 9 15
136 12 75 87
137 14 75 107
138 7 155 156
139 8 155 157
140 6 155 161
141 7 8 10
142 6 8 14
143 5 30 42
144 14 30 63
145 13 129 142
146 13 129 143
147 5 111 119
148 14 111 144
149 4 42 43
150 6 42 54
151 5 72 84
152 14 72 105
153 11 125 129
154 10 125 137
155 4 126 127
156 6 126 138
157 3 127 139
158 4 84 85
159 6 84 96
160 16 153 159
161 14 153 170
162 3 159 165
163 9 150 157
164 1 150 159
165 12 117 129
166 14 117 149
167 11 157 160
168 10 157 163
169 5 114 126
170 14 114 147
171 5 3 8
172 14 3 21
173 5 2 7
174 14 2 20
175 13 160 166
176 13 160 167
177 12 154 160
178 14 154 171

Angles

1 27 39 29 62
2 7 29 39 51
3 9 29 39 37
4 9 29 39 40
5 11 37 39 51
6 11 40 39 51
7 13 37 39 40
8 27 81 71 104
9 7 28 37 49
10 8 28 37 36
11 9 28 37 39
12 10 36 37 49
13 11 39 37 49
14 12 36 37 39
15 27 37 28 61
16 7 71 81 93
17 9 71 81 79
18 9 71 81 82
19 11 79 81 93
20 11 82 81 93
21 13 79 81 82
22 7 112 121 133
23 8 112 121 120
24 9 112 121 123
25 10 120 121 133
26 11 123 121 133
27 12 120 121 123
28 7 70 79 91
29 8 70 79 78
30 9 70 79 81
31 10 78 79 91
32 11 81 79 91
33 12 78 79 81
34 27 121 112 145
35 27 79 70 103
36 23 116 128 140
37 23 116 128 141
38 24 116 128 122
39 25 140 128 141
40 26 122 128 140
41 26 122 128 141
42 29 128 116 148
43 29 86 74 106
44 27 156 151 168
45 11 39 40 52
46 15 41 40 52
47 16 39 40 41
48 31 5 40 52
49 32 5 40 39
50 33 5 40 41
51 27 123 113 146
52 30 11 5 40
53 7 113 123 135
54 9 113 123 121
55 9 113 123 124
56 11 121 123 135
57 11 124 123 135
58 13 121 123 124
59 1 24 36 25
60 2 25 36 48
61 3 25 36 37
62 4 24 36 48
63 5 24 36 37
64 6 37 36 48
65 11 81 82 94
66 15 83 82 94
67 16 81 82 83
68 31 31 82 94
69 32 31 82 81
70 33 31 82 83
71 1 108 120 109
72 2 109 120 132
73 3 109 120 121
74 4 108 120 132
75 5 108 120 121
76 6 121 120 132
77 30 34 24 36
78 30 43 31 82
79 1 66 78 67
80 2 67 78 90
81 3 67 78 79
82 4 66 78 90
83 5 66 78 79
84 6 79 78 90
85 30 85 73 124
86 30 118 108 120
87 17 110 122 134
88 18 110 122 118
89 19 110 122 128
90 20 118 122 134
91 21 128 122 134
92 22 118 122 128
93 17 26 38 50
94 18 26 38 34
95 19 26 38 44
96 20 34 38 50
97 21 44 38 50
98 22 34 38 44
99 30 76 66 78
100 23 32 44 56
101 23 32 44 57
102 24 32 44 38
103 25 56 44 57
104 26 38 44 56
105 26 38 44 57
106 17 68 80 92
107 18 68 80 76
108 19 68 80 86
109 20 76 80 92
110 21 86 80 92
111 22 76 80 86
112 29 44 32 64
113 23 74 86 98
114 23 74 86 99
115 24 74 86 80
116 25 98 86 99
117 26 80 86 98
118 26 80 86 99
119 27 158 152 169
120 29 45 33 65
121 28 9 1 11
122 23 33 45 58
123 23 33 45 59
124 24 33 45 41
125 25 58 45 59
126 26 41 45 58
127 26 41 45 59
128 7 151 156 162
129 9 151 156 155
130 9 151 156 158
131 11 155 156 162
132 11 158 156 162
133 13 155 156 158
134 1 1 11 5
135 2 1 11 17
136 3 1 11 10
137 4 5 11 17
138 5 5 11 10
139 6 10 11 17
140 17 25 41 53
141 18 25 41 40
142 19 25 41 45
143 20 40 41 53
144 21 45 41 53
145 22 40 41 45
146 7 4 10 16
147 8 4 10 11
148 9 4 10 8
149 10 11 10 16
150 11 8 10 16
151 12 8 10 11
152 28 36 25 41
153 27 35 27 60
154 23 75 87 100
155 23 75 87 101
156 24 75 87 83
157 25 100 87 101
158 26 83 87 100
159 26 83 87 101
160 30 127 115 155
161 27 10 4 22
162 7 27 35 47
163 9 27 35 34
164 9 27 35 42
165 11 34 35 47
166 11 42 35 47
167 13 34 35 42
168 17 67 83 95
169 18 67 83 82
170 19 67 83 87
171 20 82 83 95
172 21 87 83 95
173 22 82 83 87
174 27 77 69 102
175 11 123 124 136
176 15 125 124 136
177 16 123 124 125
178 31 73 124 136
179 32 73 124 123
180 33 73 124 125
181 7 111 119 131
182 9 111 119 118
183 9 111 119 126
184 11 118 119 131
185 11 126 119 131
186 13 118 119 126
187 11 35 34 46
188 15 38 34 46
189 16 35 34 38
190 31 24 34 46
191 32 24 34 35
192 33 24 34 38
193 1 26 43 31
194 2 26 43 55
195 3 26 43 42
196 4 31 43 55
197 5 31 43 42
198 6 42 43 55
199 28 78 67 83
200 7 69 77 89
201 9 69 77 76
202 9 69 77 84
203 11 76 77 89
204 11 84 77 89
205 13 76 77 84
206 28 120 109 125
207 11 119 118 130
208 15 122 118 130
209 16 119 118 122
210 31 108 118 130
211 32 108 118 119
212 33 108 118 122
213 28 122 110 127
214 28 38 26 43
215 11 77 76 88
216 15 80 76 88
217 16 77 76 80
218 31 66 76 88
219 32 66 76 77
220 33 66 76 80
221 1 68 85 73
222 2 68 85 97
223 3 68 85 84
224 4 73 85 97
225 5 73 85 84
226 6 84 85 97
227 28 80 68 85
228 29 12 6 23
229 23 6 12 18
230 23 6 12 19
231 24 6 12 9
232 25 18 12 19
233 26 9 12 18
234 26 9 12 19
235 7 152 158 164
236 8 152 158 159
237 9 152 158 156
238 10 159 158 164
239 11 156 158 164
240 12 156 158 159
241 7 2 7 13
242 9 2 7 8
243 11 8 7 13
244 14 2 7 9
245 15 9 7 13
246 16 8 7 9
247 17 1 9 15
248 18 1 9 7
249 19 1 9 12
250 20 7 9 15
251 21 12 9 15
252 22 7 9 12
253 29 87 75 107
254 11 156 155 161
255 15 157 155 161
256 16 156 155 157
257 31 115 155 161
258 32 115 155 156
259 33 115 155 157
260 7 3 8 14
261 9 3 8 7
262 9 3 8 10
263 11 7 8 14
264 11 10 8 14
265 13 7 8 10
266 27 42 30 63
267 23 117 129 142
268 23 117 129 143
269 24 117 129 125
270 25 142 129 143
271 26 125 129 142
272 26 125 129 143
273 27 119 111 144
274 7 30 42 54
275 8 30 42 43
276 9 30 42 35
277 10 43 42 54
278 11 35 42 54
279 12 35 42 43
280 27 84 72 105
281 17 109 125 137
282 18 109 125 124
283 19 109 125 129
284 20 124 125 137
285 21 129 125 137
286 22 124 125 129
287 7 114 126 138
288 8 114 126 127
289 9 114 126 119
290 10 127 126 138
291 11 119 126 138
292 12 119 126 127
293 1 110 127 115
294 2 110 127 139
295 3 110 127 126
296 4 115 127 139
297 5 115 127 126
298 6 126 127 139
299 7 72 84 96
300 8 72 84 85
301 9 72 84 77
302 10 85 84 96
303 11 77 84 96
304 12 77 84 85
305 37 159 153 170
306 2 150 159 165
307 3 150 159 158
308 6 158 159 165
309 34 150 159 153
310 35 153 159 165
311 36 153 159 158
312 28 157 150 159
313 29 129 117 149
314 17 150 157 163
315 18 150 157 155
316 19 150 157 160
317 20 155 157 163
318 21 160 157 163
319 22 155 157 160
320 27 126 114 147
321 27 8 3 21
322 27 7 2 20
323 23 154 160 166
324 23 154 160 167
325 24 154 160 157
326 25 166 160 167
327 26 157 160 166
328 26 157 160 167
329 29 160 154 171

Dihedrals

1 15 51 39 29 62
2 16 29 39 37 36
3 19 29 39 37 49
4 19 29 39 40 52
5 21 51 39 40 52
6 22 37 39 40 52
7 22 40 39 37 49
8 23 37 39 40 41
9 24 29 39 40 41
10 12 28 37 36 48
11 14 39 37 36 48
12 15 49 37 28 61
13 17 36 37 39 51
14 18 36 37 39 40
15 19 28 37 39 51
16 20 28 37 39 40
17 21 49 37 39 51
18 15 93 81 71 104
19 16 71 81 79 78
20 19 71 81 79 91
21 19 71 81 82 94
22 21 93 81 82 94
23 22 79 81 82 94
24 22 82 81 79 91
25 23 79 81 82 83
26 24 71 81 82 83
27 12 112 121 120 132
28 14 123 121 120 132
29 15 133 121 112 145
30 17 120 121 123 135
31 18 120 121 123 124
32 19 112 121 123 135
33 20 112 121 123 124
34 21 133 121 123 135
35 12 70 79 78 90
36 14 81 79 78 90
37 15 91 79 70 103
38 17 78 79 81 93
39 18 78 79 81 82
40 19 70 79 81 93
41 20 70 79 81 82
42 21 91 79 81 93
43 39 116 128 122 118
44 43 116 128 122 134
45 45 122 128 116 148
46 46 140 128 116 148
47 46 141 128 116 148
48 25 41 40 39 51
49 28 39 40 41 53
50 29 39 40 41 45
51 34 52 40 41 53
52 49 5 40 39 37
53 50 5 40 39 29
54 51 5 40 39 51
55 52 5 40 41 25
56 53 5 40 41 53
57 54 5 40 41 45
58 47 11 5 40 52
59 48 11 5 40 39
60 15 135 123 113 146
61 16 113 123 121 120
62 19 113 123 121 133
63 19 113 123 124 136
64 21 135 123 124 136
65 22 121 123 124 136
66 22 124 123 121 133
67 23 121 123 124 125
68 24 113 123 124 125
69 1 24 36 25 41
70 3 37 36 25 41
71 4 25 36 24 34
72 7 25 36 37 28
73 8 25 36 37 49
74 9 25 36 37 39
75 10 24 36 37 49
76 11 24 36 37 39
77 13 48 36 37 49
78 25 83 82 81 93
79 28 81 82 83 95
80 29 81 82 83 87
81 34 94 82 83 95
82 49 31 82 81 79
83 50 31 82 81 71
84 51 31 82 81 93
85 52 31 82 83 67
86 53 31 82 83 95
87 54 31 82 83 87
88 1 108 120 109 125
89 3 121 120 109 125
90 4 109 120 108 118
91 7 109 120 121 112
92 8 109 120 121 133
93 9 109 120 121 123
94 10 108 120 121 133
95 11 108 120 121 123
96 13 132 120 121 133
97 5 34 24 36 48
98 6 34 24 36 37
99 47 36 24 34 46
100 47 43 31 82 94
101 48 43 31 82 81
102 1 66 78 67 83
103 3 79 78 67 83
104 4 67 78 66 76
105 7 67 78 79 70
106 8 67 78 79 91
107 9 67 78 79 81
108 10 66 78 79 91
109 11 66 78 79 81
110 13 90 78 79 91
111 47 85 73 124 136
112 48 85 73 124 123
113 5 118 108 120 132
114 6 118 108 120 121
115 47 120 108 118 130
116 27 110 122 118 119
117 33 110 122 118 130
118 35 128 122 118 130
119 36 118 122 110 127
120 40 118 122 128 140
121 40 118 122 128 141
122 41 110 122 128 116
123 42 110 122 128 140
124 42 110 122 128 141
125 44 134 122 128 140
126 44 134 122 128 141
127 27 26 38 34 35
128 33 26 38 34 46
129 35 44 38 34 46
130 36 34 38 26 43
131 40 34 38 44 56
132 40 34 38 44 57
133 41 26 38 44 32
134 42 26 38 44 56
135 42 26 38 44 57
136 44 50 38 44 56
137 44 50 38 44 57
138 5 76 66 78 90
139 6 76 66 78 79
140 47 78 66 76 88
141 39 32 44 38 34
142 43 32 44 38 50
143 45 38 44 32 64
144 46 56 44 32 64
145 46 57 44 32 64
146 27 68 80 76 77
147 33 68 80 76 88
148 35 86 80 76 88
149 36 76 80 68 85
150 40 76 80 86 98
151 40 76 80 86 99
152 41 68 80 86 74
153 42 68 80 86 98
154 42 68 80 86 99
155 44 92 80 86 98
156 44 92 80 86 99
157 39 74 86 80 76
158 43 74 86 80 92