LAMMPS data file via write_data, version 29 Oct 2020, timestep = 50000

171 atoms
10 atom types
178 bonds
16 bond types
329 angles
37 angle types
472 dihedrals
61 dihedral types

15.861747785021167 39.00457754529159 xlo xhi
3.5403588087676283 12.418482975134525 ylo yhi
10.033398060292475 17.773795544864278 zlo zhi

Masses

1 12.0107
2 12.0107
3 12.0107
4 12.0107
5 15.9994
6 15.9994
7 1.008
8 15.9994
9 1.008
10 1.008

Pair Coeffs # lj/cut/coul/cut

1 0.032 3.564
2 0.032 3.564
3 0.032 3.564
4 0.032 3.564
5 0.192 3.145
6 0.1 2.94
7 0.046 0.4
8 0.1 2.94
9 0.045 2.388
10 0.035 2.388

Bond Coeffs # harmonic

1 360 1.425
2 360 1.395
3 309 1.11
4 222.5 1.48
5 410 1.41
6 309 1.11
7 222.5 1.48
8 222.5 1.5
9 360 1.425
10 309 1.11
11 222.5 1.49
12 428 1.42
13 309 1.11
14 545 0.96
15 360 1.415
16 428 1.4

Angle Coeffs # harmonic

1 90 112
2 45 109.5
3 45 106
4 45 109.5
5 45 105
6 34.5 110.1
7 55 108.9
8 75.7 110.1
9 75.7 110.1
10 34.5 110.1
11 34.5 110.1
12 53.4 111
13 53.4 111
14 75.7 110.1
15 34.5 110.1
16 53.4 111
17 45 109.5
18 45 110
19 45 109
20 34.5 110.1
21 34.5 110.1
22 58.4 113.5
23 55 108.9
24 75.7 110.1
25 35.5 109
26 33.4 110.1
27 50 109
28 95 109.7
29 50 109
30 50 109.2
31 60 109.5
32 45 109.5
33 90 112
34 45 116.5
35 55 108.9
36 75.7 107
37 50 109

Dihedral Coeffs # fourier

1 1 0.41 1 180
2 3 0 1 0 0 2 0 0.284 3 0
3 3 0 1 0 0 2 0 0.2 3 0
4 1 0.05 1 180
5 3 0 1 0 0 2 0 0.284 3 0
6 3 0 1 0 0 2 0 1.6 3 0
7 1 2.75 1 180
8 3 0 1 0 0 2 0 0.2 3 0
9 3 2.65 1 180 0 2 0 0.13 3 180
10 3 0 1 0 0 2 0 0.2 3 0
11 3 0 1 0 0 2 0 0.2 3 0
12 3 0 1 0 0 2 0 0.14 3 0
13 3 0 1 0 0 2 0 0.2 3 0
14 3 0 1 0 0 2 0 0.2 3 0
15 3 0 1 0 0 2 0 0.18 3 0
16 3 0 1 0 0 2 0 0.2 3 0
17 3 0 1 0 0 2 0 0.2 3 0
18 3 0 1 0 0 2 0 0.19 3 180
19 3 0 1 0 0 2 0 0.2 3 0
20 3 0 1 0 0 2 0 0.2 3 0
21 3 0 1 0 0 2 0 0.2 3 0
22 3 0 1 0 0 2 0 0.2 3 0
23 3 0 1 0 0 2 0 0.19 3 180
24 3 0 1 0 0 2 0 0.2 3 0
25 3 0 1 0 0 2 0 0.2 3 0
26 3 0.29 1 0 0.62 2 0 0.05 3 0
27 3 0 1 0 0 2 0 0.31 3 180
28 3 0 1 0 0 2 0 0.2 3 0
29 3 0 1 0 0 2 0 0.2 3 0
30 3 1.36 1 180 0.16 2 0 1.01 3 0
31 3 0 1 0 0 2 0 0.2 3 0
32 3 0 1 0 0 2 0 0.2 3 0
33 3 0 1 0 0 2 0 0.2 3 0
34 3 0 1 0 0 2 0 0.2 3 0
35 3 0 1 0 0 2 0 0.2 3 0
36 3 0 1 0 0 2 0 0.2 3 0
37 3 0 1 0 0 2 0 0.284 3 0
38 3 0 1 0 0 2 0 0.2 3 0
39 3 0 1 0 0 2 0 0.2 3 0
40 3 0 1 0 0 2 0 0.2 3 0
41 3 0.75 1 180 0.17 2 0 0.25 3 180
42 3 0 1 0 0 2 0 0.2 3 0
43 3 0 1 0 0 2 0 0.14 3 0
44 3 0 1 0 0 2 0 0.2 3 0
45 3 0.29 1 0 0.62 2 0 0.05 3 0
46 3 0 1 0 0 2 0 0.18 3 0
47 3 0 1 0 0 2 0 0.284 3 0
48 3 0.13 1 180 0.25 2 180 0.06 3 180
49 3 0 1 0 0 2 0 0.2 3 0
50 3 2.65 1 180 0 2 0 0.13 3 180
51 3 0 1 0 0 2 0 0.2 3 0
52 3 1.36 1 180 0.16 2 0 1.01 3 0
53 3 0 1 0 0 2 0 0.2 3 0
54 3 0 1 0 0 2 0 0.2 3 0
55 3 0.41 1 180 0.89 2 0 0.05 3 0
56 3 1.55 1 0 1.17 2 0 1.07 3 0
57 3 0 1 0 0 2 0 0.18 3 0
58 3 0.29 1 0 0.62 2 0 0.05 3 0
59 3 2.65 1 180 0 2 0 0.13 3 180
60 3 0 1 0 0 2 0 0.14 3 0
61 3 0 1 0 0 2 0 0.2 3 0

Atoms # full

12 1 4 0.05 38.10199655089489 4.4799787943536336 10.553713371781054 -1 0 0
18 1 10 0.09 37.05111880016519 4.765210850716871 10.831328724554883 -1 0 0
148 1 7 0.42 36.68641366772486 6.578985304037708 11.015313287284744 0 0 1
158 1 2 0.14 39.00288521301654 7.7213869097890555 10.884385933993055 0 0 0
159 1 1 0.29 17.161736276749416 6.949080831056791 10.730896894030117 1 0 0
116 1 5 -0.65 36.10909084335169 7.346284277771803 10.975075159817974 0 0 1
164 1 9 0.09 38.17809245539549 7.034344345457233 10.558444126143971 0 0 0
98 1 10 0.09 23.65298791739228 8.264321097504375 10.662737547214109 0 0 1
128 1 4 0.05 36.6920918154244 8.306811867077585 10.104292661312464 0 0 1
141 1 10 0.09 37.788154870034035 8.354153545061934 10.338400787685014 0 0 1
152 1 5 -0.65 38.94478571937482 8.81763158998684 17.75152787184843 0 0 -1
27 1 5 -0.65 20.713538003602576 9.92305921243944 10.474261163477737 0 0 0
34 1 2 0.14 23.29356782267573 9.435935562247899 10.99213670008382 0 0 0
32 1 5 -0.65 27.5262324310601 9.379081488046943 10.757233637490732 0 0 0
140 1 10 0.09 36.243337031445996 9.290042880498603 10.318232216986138 0 0 1
35 1 2 0.14 21.951508689259278 10.293321109089163 11.103030262940193 0 0 0
63 1 7 0.42 20.200088823679756 11.830169665877225 11.009942608043842 0 0 0
42 1 2 0.14 22.169311965947198 11.670606416691896 10.793154891318812 0 0 0
19 1 10 0.09 38.158635021361114 12.270284593912928 10.387850267456315 -1 -1 0
55 1 9 0.09 23.635125360397236 4.276750154315825 11.330303395672132 0 1 0
9 1 3 0.11 15.960360015672897 4.937200945225826 11.563894752037628 0 0 0
15 1 9 0.09 16.97943158567318 4.718093258025036 11.133561971406836 0 0 0
150 1 6 0.04 16.934137689698264 5.746342525385002 11.438155667444715 1 0 0
1 1 6 0.04 15.917740886871911 6.329598555616229 11.89588165164276 0 0 0
17 1 9 0.09 17.991435055274476 6.2810880511713805 11.920672013834404 0 0 0
61 1 7 0.42 18.74316447910412 6.621668845265032 11.822254969549412 0 0 0
142 1 10 0.09 31.80509189296008 6.7787160343723905 12.170931857608661 0 0 0
165 1 9 0.09 18.02420158605854 7.4808274069681735 11.188120403314448 1 0 0
28 1 5 -0.65 19.416251289969857 7.268668421696485 11.583941512430872 0 0 0
24 1 8 -0.36 22.665230815874853 8.24131628970477 11.493452193186918 0 0 0
56 1 10 0.09 26.274375306785583 8.27810120660096 12.027482283451313 0 0 0
143 1 10 0.09 30.806375529812087 8.138339153690652 11.610739951754615 0 0 0
25 1 6 0.04 20.597265835500544 9.395359073972347 12.13169786702093 0 0 0
38 1 3 0.11 24.802483491848683 9.995476501656658 11.59022822713 0 0 0
44 1 4 0.05 26.40057552784132 9.33546357311269 11.739065175484235 0 0 0
64 1 7 0.42 28.377912573656488 9.338467688844183 11.208199935826809 0 0 0
146 1 7 0.42 30.10951578746868 9.502123115841043 11.822102419760103 0 0 0
47 1 9 0.09 21.687978453684565 10.25860594301649 12.172697422609435 0 0 0
30 1 5 -0.65 20.972716027591577 12.382905929321163 11.184648776369597 0 0 0
43 1 1 0.29 23.507681745891514 12.066020344065645 11.485313042520112 0 0 0
26 1 6 0.04 24.791521866142716 11.390866019893064 11.196485901672812 0 0 0
167 1 10 0.09 16.471978433308088 3.8731660965737036 12.867561801782907 1 0 0
14 1 9 0.09 17.912080081511167 4.133465321929484 13.289146613290859 0 0 0
7 1 2 0.14 38.97700319532601 4.294577751406391 12.89916528825922 -1 0 0
147 1 7 0.42 35.75116510171647 5.002782595397703 13.076846581788518 0 0 0
157 1 3 0.11 16.607577498150565 5.997946876212449 12.817331307709486 1 0 0
11 1 1 0.29 17.180579459779075 6.723290044806392 12.555953879914048 0 0 0
163 1 9 0.09 17.56290034595041 6.262082807757583 13.348685244166813 1 0 0
49 1 9 0.09 20.984239156379566 6.145435093263588 12.38908622545538 0 0 0
105 1 7 0.42 27.19320772050216 6.622771124126519 13.246363711111464 0 0 0
161 1 9 0.09 37.63733840265709 6.59874676872889 12.73127233425111 0 0 0
37 1 2 0.14 20.512541439275918 7.146938885177677 12.474250773645055 0 0 0
69 1 5 -0.65 23.218383542219584 7.659627470784328 12.827054913282776 0 0 0
72 1 5 -0.65 26.37765766578985 7.029309550095956 12.927718400403585 0 0 0
129 1 4 0.05 31.374974047159725 7.749123501838363 12.483549960304048 0 0 0
155 1 2 0.14 38.62199184759688 7.0148311196529125 13.079649164570272 0 0 0
162 1 9 0.09 16.400282837914997 8.852494172840345 12.730548022210185 1 0 0
5 1 8 -0.36 17.52503654702623 8.10302064443972 12.851507380969988 0 0 0
36 1 1 0.29 21.511978826714824 8.333575568843202 12.371430549881286 0 0 0
102 1 7 0.42 22.416009424590044 8.155444520553957 13.02291845325967 0 0 0
136 1 9 0.09 28.581454071085776 8.415237708191308 12.92273157877384 0 0 0
117 1 5 -0.65 32.48946141496245 8.615379785790104 12.747934188032723 0 0 0
149 1 7 0.42 33.29612868437874 8.108056454708002 12.836027650191202 0 0 0
151 1 5 -0.65 37.50148413611896 8.912444584360209 12.409886899950653 0 0 0
168 1 7 0.42 37.21073321455089 8.87741767130688 13.32949969579686 0 0 0
156 1 2 0.14 38.73335303960031 8.216097195846977 12.30386490530523 0 0 0
41 1 3 0.11 19.751913354075697 9.51828875156901 13.302269013800935 0 0 0
50 1 9 0.09 24.540086118115866 10.034885649440177 12.66264586251282 0 0 0
57 1 10 0.09 26.820285928223967 9.852641725558357 12.633286481863921 0 0 0
113 1 5 -0.65 30.719966780659348 9.61106803638039 12.553438629547031 0 0 0
53 1 9 0.09 19.133243122213088 10.434074494388987 13.203940943969855 0 0 0
95 1 9 0.09 25.510660977239485 10.454789742748854 13.00568809444655 0 0 0
31 1 8 -0.36 23.184021408436315 11.8752794296252 12.808863572109479 0 0 0
2 1 5 -0.65 38.89707142001766 11.77842621036205 12.715369731166604 -1 -1 0
20 1 7 0.42 37.999427839879544 11.543571886881898 12.473877370195847 -1 -1 0
8 1 2 0.14 17.016904149322166 4.625254568983246 13.74667768277576 0 0 0
94 1 9 0.09 24.889695022356655 3.943080592063556 13.589069618993753 0 1 0
13 1 9 0.09 38.04053363901642 4.657340242787891 13.403873421532184 -1 0 0
160 1 4 0.05 16.092631745069806 4.752298829226393 13.406295334345298 1 0 0
166 1 10 0.09 16.42989631643696 4.701295016101159 14.460785340212336 1 0 0
114 1 5 -0.65 36.545446731599434 5.447097005404517 13.370533743764899 0 0 0
154 1 5 -0.65 37.81410234474281 4.71760378718003 13.399839655492496 0 0 0
171 1 7 0.42 37.48869649439479 5.060412164724657 14.232278380406466 0 0 0
10 1 2 0.14 17.267366397258687 6.074865312896666 13.845219525482232 0 0 0
4 1 5 -0.65 18.510683011520047 6.378560859405662 14.42152408058992 0 0 0
51 1 9 0.09 19.36529260326989 6.297855840428301 14.075677654044949 0 0 0
22 1 7 0.42 19.174236598064553 6.32729330646732 13.73479200766283 0 0 0
96 1 9 0.09 25.16030921576548 6.008314118768114 14.163793377107694 0 0 0
137 1 9 0.09 30.131401981047624 6.43009621775299 13.602081367127724 0 0 0
111 1 5 -0.65 33.71903279259045 6.507853300362624 14.430484046751555 0 0 0
39 1 2 0.14 19.82862498112918 7.248796834970717 13.765286989605091 0 0 0
77 1 2 0.14 24.094476501944126 7.864313364796548 13.914788145496875 0 0 0
84 1 2 0.14 25.483067440869704 7.057967267845072 14.009971396114782 0 0 0
125 1 3 0.11 30.479865942069672 7.4654490857181095 13.736395109141826 0 0 0
131 1 9 0.09 35.21640291607864 7.714553735473485 13.880403556881555 0 0 0
115 1 8 -0.36 38.51989733116935 7.4055697238120075 14.429480363378403 0 0 0
40 1 2 0.14 18.79308279098801 8.31168134155933 13.643044679422877 0 0 0
62 1 7 0.42 21.451816053919423 8.197014441603624 14.306665502169647 0 0 0
48 1 9 0.09 21.961421560128027 8.512827567877117 13.372173835483123 0 0 0
33 1 5 -0.65 21.996449270001104 8.941724273012333 14.329559652816435 0 0 0
89 1 9 0.09 24.343749286272413 8.947747959442165 13.902452009498642 0 0 0
124 1 2 0.14 29.08406497306602 8.367103406423162 13.917993069181472 0 0 0
132 1 9 0.09 32.78300766531284 8.849586385157314 13.813305169994427 0 0 0
45 1 4 0.05 20.806845704710394 9.737609618037176 14.420428086038607 0 0 0
65 1 7 0.42 22.46980927613854 9.1362020101209 13.519362941128305 0 0 0
67 1 6 0.04 24.185729585902454 9.605283125486713 14.301978041860373 0 0 0
75 1 5 -0.65 27.91045863997053 10.126860931168597 14.343495990926932 0 0 0
123 1 2 0.14 30.042356110178744 9.58771077281948 13.808354816078099 0 0 0
70 1 5 -0.65 21.156951801204162 10.926476823768047 13.993255972105493 0 0 0
58 1 10 0.09 21.14875800549102 10.791906392876754 14.373453154139264 0 0 0
83 1 3 0.11 25.162332377919135 10.66891308005853 14.031180449554949 0 0 0
135 1 9 0.09 29.4158747433443 10.501702139781102 13.854629192286161 0 0 0
103 1 7 0.42 20.419442959589453 11.513167959712554 14.214454932421685 0 0 0
82 1 2 0.14 24.24668984024301 11.93880946375257 13.777203817281908 0 0 0
3 1 5 -0.65 16.81204974389141 4.081731919005423 15.021633582409812 0 0 0
21 1 7 0.42 15.9638128238103 4.396811290570163 15.333845049550632 0 0 0
93 1 9 0.09 22.809363887028912 4.235624666421097 14.8189785923854 0 1 0
144 1 7 0.42 33.53221211913055 5.702185128539304 14.915519239989203 0 0 0
138 1 9 0.09 36.06875508504528 5.190674079843337 15.301347970565608 0 0 0
139 1 9 0.09 38.38678920441963 5.5591966572553435 15.275851761867099 0 0 0
16 1 9 0.09 16.495586937403115 6.544082710647741 14.491452007310926 0 0 0
88 1 9 0.09 22.721990620327702 6.70308169609113 15.211386949032445 0 0 0
97 1 9 0.09 26.894397768588597 6.389832495380687 15.356206478340145 0 0 0
126 1 2 0.14 36.32509448201007 6.028178560114062 14.626793867241284 0 0 0
127 1 1 0.29 37.74915714509598 6.467886485755257 15.15315570751148 0 0 0
29 1 5 -0.65 20.798802767155507 7.626677248954989 14.725263035865513 0 0 0
76 1 2 0.14 23.20106348002026 7.699492356547458 15.110962416356688 0 0 0
85 1 1 0.29 26.443206112281622 7.383549454634085 15.154722199799545 0 0 0
109 1 6 0.04 31.604717561330972 7.426674650367463 14.721388477002215 0 0 0
119 1 2 0.14 35.035014936619795 6.968858936757661 14.663541850936925 0 0 0
52 1 9 0.09 18.46277743027287 8.453505046754092 14.693162600928437 0 0 0
66 1 8 -0.36 22.1765193753752 8.687486545409765 15.04116944006078 0 0 0
73 1 8 -0.36 27.833953670085762 8.193059323315524 14.976124064775703 0 0 0
120 1 1 0.29 32.415345673878605 8.645521857509593 14.83833354541994 0 0 0
59 1 10 0.09 20.352052226587737 9.577518698953835 15.411251956415393 0 0 0
78 1 1 0.29 23.021399751152618 9.791203880139427 15.185551300090236 0 0 0
107 1 7 0.42 28.584945259340998 10.194038133100266 15.031625408929226 0 0 0
121 1 2 0.14 31.120950754277 9.641187336578131 14.943359039869582 0 0 0
79 1 2 0.14 22.209243353043295 11.03114737281957 14.995212313427103 0 0 0
87 1 4 0.05 26.656012209863675 10.767166943447045 14.803899021920639 0 0 0
133 1 9 0.09 31.483763779054 10.6872802733646 15.011985249348307 0 0 0
81 1 2 0.14 23.290681623047277 12.125909829020591 14.909070928111886 0 0 0
100 1 10 0.09 26.89708893108726 11.84824233376183 14.766770767409163 0 0 0
68 1 6 0.04 25.441621413016513 7.4118786582067795 16.32626589248724 0 0 0
130 1 9 0.09 34.48255180705 6.881573529942875 16.589802856630786 0 0 0
118 1 2 0.14 34.87618529040979 7.661697617257692 15.903357544948893 0 0 0
122 1 3 0.11 36.47295809141608 7.979179925150534 16.400860558470193 0 0 0
110 1 6 0.04 37.50767180142096 6.9398226402473755 16.442213265914944 0 0 0
80 1 3 0.11 24.0552515297567 8.04660961878636 16.275881884316576 0 0 0
108 1 8 -0.36 33.71515317394806 8.69544876086316 15.713224680249606 0 0 0
134 1 9 0.09 36.89777835261528 8.806760348137079 15.792411288887472 0 0 0
90 1 9 0.09 23.38052161771422 9.772455619079743 16.236466875036125 0 0 0
92 1 9 0.09 24.255829779044802 9.13225658211363 16.19571107452013 0 0 0
112 1 5 -0.65 30.24576998850595 9.389553815099765 16.03015245857296 0 0 0
91 1 9 0.09 21.66385992502388 11.24355920796781 15.940666182913468 0 0 0
101 1 10 0.09 26.537028090075115 10.53677430275623 15.874113332563656 0 0 0
71 1 5 -0.65 24.13040766242988 12.13478961591713 16.039087125351735 0 0 0
23 1 7 0.42 16.0914700325852 4.7073824756811655 16.76553954358154 0 0 -1
6 1 5 -0.65 38.41590809088304 5.094350233674341 17.07897938565866 -1 0 -1
153 1 5 -0.65 17.464810823061757 6.7467777160885705 17.123290968000013 1 0 -1
170 1 7 0.42 17.787645738039373 7.571492401962416 16.75028659375802 1 0 -1
99 1 10 0.09 22.715737275033714 6.946864410192822 17.629711455729506 0 0 0
169 1 7 0.42 16.0333412346271 8.536096737187478 16.86286601097543 1 0 -1
106 1 7 0.42 21.143089656082907 8.461434886923271 17.15281807849516 0 0 0
74 1 5 -0.65 21.950368039112117 8.900883998498347 17.423521566901705 0 0 0
86 1 4 0.05 23.081135063326638 7.9865215946782415 17.495250314768057 0 0 0
60 1 7 0.42 20.82713378104102 9.888637193818205 17.261153882254604 0 0 -1
46 1 9 0.09 23.513403240012494 9.246159417709517 17.66874425333602 0 0 -1
145 1 7 0.42 30.697780773583617 9.548528248443994 16.859079982760274 0 0 0
54 1 9 0.09 22.25619475146747 11.773889163731686 17.44366927254623 0 0 -1
104 1 7 0.42 23.6621367969237 3.5458177894124834 16.828976083954416 0 1 0

Velocities

12 -0.0003339617607446592 0.002816784096808281 0.0020315302715159444
18 0.00479676547763866 -0.0009096511239425197 0.0029528722387227586
148 0.009891290566613647 0.009358636707784317 0.004316764891448737
158 -0.001990198311173386 0.0022709877708129585 -0.004401788525122907
159 -0.0023885511610824053 0.0032893313886324382 0.0022323865329473384
116 -0.00043828316799236815 -4.642820447515798e-05 0.0014241053850145634
164 0.005722826781633219 0.0029495774419923495 -0.009957122434638385
98 0.002112335121759318 -0.00038483058848788295 0.005258964926312673
128 -0.007975832066411394 0.005747130012110076 0.002545618553101971
141 -0.010490230676215883 0.00957631346832969 -0.003884431702244905
152 0.0007584128132441427 0.003941889231913703 -0.005441805496790936
27 0.023562700124743676 -0.0034279312140912182 0.005104988625738982
34 -0.0013073660729293855 -0.004128777661398806 0.0010494272827837354
32 -0.01839663209631592 0.006100503253888394 4.411222989533658e-05
140 -0.00764353796718239 0.008585216344594568 0.012508052512242985
35 0.014211774521249668 0.0005795356214792053 0.0036301259412711132
63 0.02129066900984947 -0.007409214260374609 -0.01217083115572909
42 0.010988808687190176 0.003877241482775668 0.003929085625793156
19 0.0035018508898159244 -0.0030827189577854013 0.007405322101706204
55 -0.0030333187452719545 0.006087574124877152 0.005680600385957127
9 0.00011680577632528836 0.004156140359008356 0.002625720462039894
15 -0.007711066129818099 -0.0025871096759454517 -0.002850195087480727
150 -0.0035231298568217098 -0.004398412013634054 -0.00043638723981569117
1 0.012860938099700726 0.01075428747339352 0.0020343386905235876
17 -0.006983748987728637 0.0008175115272669092 -0.012801581952043612
61 0.0030130619816875225 0.00941729950547922 -0.00018578992690700032
142 -0.008117050871991386 -0.0011173723101289943 -0.004222740514472446
165 -0.009395725591093062 0.005428577074514564 0.0047958853491638
28 0.007513737431478897 0.0030407688247550933 -0.0065486158836657
24 -0.006642660725547321 -0.007647665142094386 3.482157553947863e-05
56 -0.026480602726859124 -0.0014551980612340896 -0.0027660386524641324
143 0.003593332562680827 0.005769918883506143 0.001529879952338241
25 -0.004126018213248607 -0.002103099636200149 -0.0034243634624671598
38 -0.011821710396172535 -0.002593329682106498 -0.0035645866691084117
44 -0.021211161824522373 0.0014268247279671281 -0.005837943520027617
64 -0.027792084729500604 0.006595887765002725 0.0069546010512460755
146 -0.003359675272346029 0.0026958058227307515 0.004911304365700481
47 0.01428940857370883 0.004138223998047935 0.0042938478460702294
30 0.013793038011126938 -0.0006345278158922324 -0.0014507263037375675
43 -0.0008908659141401697 0.002651978641295011 0.006518874887541049
26 -0.013570781648300289 -0.0006279433587269088 -0.008092460400918025
167 -0.012353259675462264 -0.005507088554490165 0.004893858885158613
14 -0.016341213427108644 -0.010607435157314262 -0.0076817294282657085
7 0.0010918920081111037 0.0014236336897421108 0.0023144771012832553
147 0.008017959875283538 -0.00038359601819652257 0.0032046094157350403
157 -0.0029446009483420767 -0.00014728654425110488 0.004252199457312326
11 0.005038114400606872 0.0015549439811432932 -0.0002553635014047722
163 -0.011742861629919726 -0.007744526269685616 0.014179464426725895
49 -0.005199170253725026 -0.0062271662743536025 -0.005758897832040444
105 -0.0165350012739855 -0.0005472538813331871 -0.00352897961402834
161 0.015657060440379796 -0.02019118656162132 -0.0056303134915406524
37 0.0011141602965880817 -0.003457569405309846 -0.0020134198180330903
69 0.00941619879466944 -0.005604718323593756 3.475867069474511e-06
72 -0.010595009374981519 0.003555877572824069 -0.002057243276679489
129 -0.004205066678353402 0.0005300641548722484 0.0031227318502767406
155 0.002213146637872446 -0.0033590774318584603 -0.0013815211228565356
162 -0.01472643209675395 0.0059625426190138 0.002609611223674281
5 0.016334686049335308 4.597192605488226e-05 0.003342381973099653
36 -0.004064169417883014 -0.0023399183205629523 0.0026409210017902186
102 0.01580168206473552 -0.004185491358281048 0.0012315924414249093
136 0.0023583450131606887 0.0008408417539285522 -0.0003298067786158989
117 -0.00541658836317 -0.0017194391581643468 -0.00027267891890760213
149 -0.020823876651988805 0.0012760929314024473 0.004425875759824994
151 0.008591924233332075 -0.002741178499831252 -0.005394813928312385
168 0.02000692874525969 -0.008845944211790344 0.006769011954386628
156 -0.0004942005852076397 0.00177106329451876 -0.003344509023340266
41 0.0015944943073274915 0.003472507302999436 -0.00315236860121408
50 -0.004732145393641511 -0.00599589586600768 -0.0022397056266481655
57 -0.03376490503747632 0.0012460994549176336 0.0009866128751446685
113 -0.004981245088899419 -0.00031372098558940943 0.001783132311212037
53 0.004930269288623762 0.0037616584369542564 -0.010151739240978884
95 0.007033514480058651 -0.002845591736909388 -0.0018246871290196005
31 0.0008139621629986502 -0.003044656290642729 0.004948761360102449
2 -0.00013691075689273766 -0.006327912017090532 0.0006912808813971182
20 0.012616950049051688 -0.00545744343878131 0.002154452169161878
8 -0.0004711609042769481 -0.0018100108274307425 -0.001729031225747373
94 -0.007163637109778532 0.00516092195601865 -0.010655529085222926
13 0.008045928423296768 0.0051022002917919355 0.008925724483502755
160 -0.0037937107441723596 -0.0009848438276877855 0.0012184022345539652
166 -0.017351489269052178 -0.01164406710991232 0.0022006765031087486
114 -0.005041566670094401 -0.0016514835853699268 -0.004198676601662892
154 0.008441908579783976 -0.0019783691347812493 -0.0006532597601855414
171 0.01974597514539306 0.0009476285608544618 -0.000512957264724258
10 0.0013067996236652316 -0.001622698655758426 0.0005811442168552449
4 -0.0069944174574993285 -0.0015660899394330575 -0.0037196038642615436
51 0.001224116747658303 -0.003160326765592387 0.002027953950687795
22 -0.021605402186014804 -0.007946788772007923 -0.0028561236397443637
96 0.010001275163432284 -0.0012784759664695806 -0.00111333409057227
137 0.005146077446340179 -0.005432644625092155 0.008008479122362215
111 0.02031433097461936 -0.006471918864097558 -0.0014787997023855966
39 0.0014183324441128665 -0.0030530261151492447 -0.0006581122640746712
77 0.004470769774896176 0.002698540689108406 -0.0037437789903050113
84 -0.0025495162929883345 0.004467014091229508 -0.0031063731073091203
125 0.0012949588308693205 -0.0033353344016278192 0.008528618576985668
131 0.004928487158231319 -0.003819537665814228 -0.01035115091884535
115 -0.009826280487687014 -0.0011938004049116663 -0.0007128223626502654
40 0.008120844695142852 -0.0003092344156334966 0.0011989244982538254
62 -0.009042841968458852 -0.0007449972466876274 0.0012488551031349326
48 -0.008447440630035788 0.0008991401340780219 0.006727135777454531
33 -0.00828413184939204 0.0006167162486573565 -0.001599894083428159
89 -0.0017800727753442683 0.007645104655029127 -0.0066452003087075304
124 -0.000489382426528527 -0.004740864767226888 0.0035288252014217935
132 -0.008303782417344993 -0.003419761271669815 -0.004829430527558133
45 -0.0020119643213329995 0.0021378589017528715 -0.000562574111918382
65 -0.0023669421753077123 0.00849762265385434 0.005609687249963736
67 0.0030399634303879385 -0.0016755647915369703 0.0006458689884580147
75 -0.022299046261158032 0.0025755472778815074 -0.0027078917858623652
123 0.0036122947093280436 -0.0009621431560696802 0.0054774510010811754
70 0.007510875189479644 0.004524363804726278 0.00044689990011278276
58 -0.003540436510221624 0.0017749359345556554 0.008717000530762496
83 0.001024839519378334 -0.0005874393518238162 -0.0027593542664884796
135 0.013556809068081987 0.004532103776846562 0.0037956304518784617
103 0.009945798978565165 0.007917848401393628 0.005119345259706213
82 0.0015256595001093914 0.002363183916454042 -0.002027877002450753
3 -0.0009238473381719578 -0.002179646441756404 0.0031910555821800402
21 0.013428931482757556 -0.008034315100853241 0.005610468287007816
93 0.010561865743383322 0.001058629962001953 -0.004839078108288421
144 0.017864620297481062 -0.0035033551378076734 0.005522919009503584
138 0.003579769096988697 -0.0031215170728539437 0.0005681806731070783
139 -0.02376237553760264 -0.010335796740722212 0.000908567586879537
16 0.00907009616816837 -0.006218360695114883 0.00657573925433773
88 0.026558816419372834 -0.0044658307168568175 0.0008392367027885434
97 -0.009523523975211544 -0.0024612306517813125 -0.009881529837810822
126 -0.0008340949463417807 0.001193272806895167 -0.0014800250295819277
127 -0.01453565860621684 -0.001983145222247393 0.00010664010705088282
29 -0.009413252545660385 0.00018942768692242943 0.0031322991301890087
76 0.014818847568714159 0.0015563096709831897 -0.0031639665143672595
85 -0.0025391880898224255 0.0031435679480942063 -0.005042146401194954
109 -0.004057083372893514 -0.002268155244505833 0.008514269835100643
119 0.009817912350513094 0.003682276921881802 -0.0009325589974340937
52 0.01078394430034776 -0.0011113543057929291 0.00425415584136264
66 0.015618244396910405 -0.0012654690479875627 -0.0005725482684105487
73 -0.002118236097192642 -0.004371666250462928 -0.002105761888341393
120 -0.00041376469023850167 -0.0023138834602086187 0.00022673609780440537
59 0.003696871547167959 -0.004387047330603767 -0.0011917475416100632
78 0.008218616959629176 0.0005631409618127547 9.993180534043544e-05
107 -0.025084347827067678 0.017961352455579657 0.0012160603531065014
121 0.006171202623243212 2.1495772512653347e-05 0.003148223335176811
79 0.009194611439606776 -0.00024059315583318803 -0.0016285052833604585
87 -0.01422267508304953 0.0011471063733437673 -0.002116444887156183
133 0.006699755464403179 0.0014791629299711285 0.0060030349603292735
81 0.0030504131200726594 0.0007428759500736178 -0.0026520394519170144
100 -0.01665573990330409 0.002412023912848501 0.007434662629265881
68 0.0018030856273174183 0.010008783104246024 0.00023113518439997377
130 0.01444341943806206 -0.007938576232102654 -0.0031848589139806044
118 -0.0008938697846615524 0.004151377732346863 -0.0028311112921278496
122 -0.01559739727676484 0.009564556499032446 -0.001805618822173956
110 -0.02217371645810688 0.0038688644922760004 0.002466137126523242
80 0.0067176306914801575 0.0032191219747038434 0.0006346899903570429
108 -0.003580208768421486 -0.004064378647481931 0.0031976503751424104
134 -0.034052600989852265 0.020440662583330996 -0.0033729675193512635
90 0.0092900663371896 0.0009199026738622147 0.002847463402461661
92 -0.0009549614450963229 0.007606742470260728 0.003054899221210767
112 0.010719425138756532 -0.00215596557995258 0.0049450166691397315
91 0.013241066583256184 -0.0013253349741247792 0.005404138128885437
101 -0.016131266150293967 -0.010838042887205456 -0.004598816061487509
71 -0.005803851718945788 -0.0028653576843139785 0.0035911146891473905
23 -0.011239742189470579 0.0024936564451451706 -0.00036532282133478253
6 -0.0014191902657606779 -0.0006155527211496851 -0.003072197786960357
153 -0.0014265780001606035 0.0036852466404667878 -0.000501447464270364
170 -0.004802536927519174 0.007286891593320734 -0.003667221815828358
99 0.01625602058692946 -0.005818170392132116 0.0004630655945265903
169 -0.0004676546237367696 -0.006579601697309997 -0.007198183103120034
106 0.020208278824588335 -0.009639493638050993 -0.00034721455399330516
74 0.008919331119698127 -0.006192562728817125 -0.003938866842929813
86 0.008794504517832716 -0.0007238650226928623 0.0007302662941771438
60 0.020913060848901332 0.0061188201283663545 -0.0022313054532175467
46 -0.007068394420329712 -0.008269015299231504 -0.001705486778455814
145 0.005123670456935235 0.002318494312479343 0.005239911846640072
54 0.00885653176194805 0.005877079473527655 0.004063776084486631
104 -0.010891335883801364 0.003625935935417664 0.0028622131680651327

Bonds

1 13 12 18
2 13 12 19
3 4 158 159
4 6 158 164
5 3 159 165
6 12 116 128
7 14 116 148
8 13 128 140
9 13 128 141
10 5 152 158
11 14 152 169
12 5 27 35
13 14 27 60
14 7 34 35
15 8 34 38
16 6 34 46
17 12 32 44
18 14 32 64
19 7 35 42
20 6 35 47
21 4 42 43
22 6 42 54
23 11 9 12
24 10 9 15
25 9 150 157
26 1 150 159
27 9 1 9
28 1 1 11
29 5 28 37
30 14 28 61
31 15 24 34
32 2 24 36
33 1 25 36
34 9 25 41
35 11 38 44
36 10 38 50
37 13 44 56
38 13 44 57
39 5 30 42
40 14 30 63
41 3 43 55
42 9 26 38
43 1 26 43
44 7 7 8
45 8 7 9
46 6 7 13
47 11 157 160
48 10 157 163
49 3 11 17
50 7 37 39
51 6 37 49
52 5 69 77
53 14 69 102
54 5 72 84
55 14 72 105
56 13 129 142
57 13 129 143
58 7 155 156
59 8 155 157
60 6 155 161
61 2 5 11
62 15 5 40
63 4 36 37
64 3 36 48
65 12 117 129
66 14 117 149
67 5 151 156
68 14 151 168
69 7 156 158
70 6 156 162
71 11 41 45
72 10 41 53
73 5 113 123
74 14 113 146
75 2 31 43
76 15 31 82
77 5 2 7
78 14 2 20
79 7 8 10
80 6 8 14
81 13 160 166
82 13 160 167
83 5 114 126
84 14 114 147
85 12 154 160
86 14 154 171
87 4 10 11
88 6 10 16
89 5 4 10
90 14 4 22
91 5 111 119
92 14 111 144
93 7 39 40
94 6 39 51
95 7 77 84
96 6 77 89
97 4 84 85
98 6 84 96
99 11 125 129
100 10 125 137
101 2 115 127
102 15 115 155
103 8 40 41
104 6 40 52
105 12 33 45
106 14 33 65
107 8 124 125
108 6 124 136
109 13 45 58
110 13 45 59
111 1 67 78
112 9 67 83
113 12 75 87
114 14 75 107
115 7 123 124
116 6 123 135
117 5 70 79
118 14 70 103
119 11 83 87
120 10 83 95
121 8 82 83
122 6 82 94
123 5 3 8
124 14 3 21
125 4 126 127
126 6 126 138
127 3 127 139
128 5 29 39
129 14 29 62
130 7 76 77
131 8 76 80
132 6 76 88
133 3 85 97
134 1 109 120
135 9 109 125
136 7 119 126
137 6 119 131
138 15 66 76
139 2 66 78
140 2 73 85
141 15 73 124
142 4 120 121
143 3 120 132
144 4 78 79
145 3 78 90
146 7 121 123
147 6 121 133
148 7 79 81
149 6 79 91
150 13 87 100
151 13 87 101
152 7 81 82
153 6 81 93
154 9 68 80
155 1 68 85
156 7 118 119
157 8 118 122