LAMMPS Description

     171  atoms
     178  bonds
     329  angles
     472  dihedrals
     0  impropers

     10  atom types
     16  bond types
     37  angle types
     61  dihedral types

  0.0 50.0 xlo xhi
  0.0 20.0 ylo yhi
  0.0 20.0 zlo zhi

Masses

1 12.0107  # c1
2 12.0107  # ch
3 12.0107  # c5
4 12.0107  # c6
5 15.9994  # oh
6 15.9994  # o5
7 1.008  # ho
8 15.9994  # o4
9 1.008  # h
10 1.008  # hc

Atoms  # full

1 1 6 0.0 7.486427190999917 9.70012629199899 9.87612629199899
2 1 5 0.0 4.059427190999917 10.875126291998988 9.336126291998989
3 1 5 0.0 5.6094271909999165 13.31512629199899 9.349126291998989
4 1 5 0.0 7.886427190999917 13.081126291998988 11.204126291998989
5 1 8 0.0 9.394427190999917 10.733126291998989 10.733126291998989
6 1 5 0.0 6.248427190999917 7.263126291998988 9.590126291998988
7 1 2 0.0 5.482427190999917 10.926126291998989 9.27712629199899
8 1 2 0.0 5.977427190999917 12.137126291998989 10.06812629199899
9 1 3 0.0 6.059427190999917 9.63012629199899 9.85012629199899
10 1 2 0.0 7.496427190999917 12.10112629199899 10.24212629199899
11 1 1 0.0 7.967427190999917 10.733126291998989 10.733126291998989
12 1 4 0.0 5.6734271909999165 8.419126291998989 9.00812629199899
13 1 9 0.0 5.763427190999916 11.04012629199899 8.22312629199899
14 1 9 0.0 5.479427190999917 12.201126291998989 11.044126291998989
15 1 9 0.0 5.701427190999917 9.458126291998989 10.875126291998988
16 1 9 0.0 7.9844271909999165 12.372126291998988 9.297126291998989
17 1 9 0.0 7.651427190999916 10.535126291998989 11.76412629199899
18 1 10 0.0 6.055427190999916 8.503126291998989 7.984126291998988
19 1 10 0.0 4.589427190999917 8.282126291998988 8.968126291998988
20 1 7 0.0 3.8014271909999167 10.76712629199899 10.268126291998989
21 1 7 0.0 4.6414271909999165 13.301126291998989 9.244126291998988
22 1 7 0.0 7.456427190999917 12.861126291998989 12.04912629199899
23 1 7 0.0 7.211427190999917 7.397126291998989 9.62012629199899
24 1 8 0.0 15.69083212344891 10.064126291998988 10.047126291998989
25 1 6 0.0 13.95783212344891 11.02112629199899 11.300126291998989
26 1 6 0.0 18.36883212344891 11.63012629199899 12.03612629199899
27 1 5 0.0 16.86983212344891 7.833126291998989 11.42112629199899
28 1 5 0.0 13.59483212344891 10.86012629199899 8.429126291998989
29 1 5 0.0 11.75283212344891 8.352126291998989 10.304126291998989
30 1 5 0.0 19.70083212344891 8.209126291998988 11.88212629199899
31 1 8 0.0 20.13283212344891 10.733126291998989 10.733126291998989
32 1 5 0.0 17.17083212344891 13.920126291998988 11.153126291998989
33 1 5 0.0 11.27383212344891 10.015126291998989 13.570126291998989
34 1 2 0.0 16.60583212344891 10.199126291998988 11.13012629199899
35 1 2 0.0 17.58283212344891 9.02412629199899 11.077126291998988
36 1 1 0.0 14.35283212344891 9.898126291998988 10.515126291998989
37 1 2 0.0 13.43283212344891 9.74212629199899 9.302126291998988
38 1 3 0.0 17.34783212344891 11.54012629199899 11.035126291998989
39 1 2 0.0 11.965832123448909 9.638126291998988 9.72912629199899
40 1 2 0.0 11.58283212344891 10.733126291998989 10.733126291998989
41 1 3 0.0 12.631832123448909 10.94712629199899 11.83812629199899
42 1 2 0.0 18.723832123448908 9.22612629199899 12.073126291998989
43 1 1 0.0 19.36183212344891 10.609126291998988 11.926126291998989
44 1 4 0.0 16.41383212344891 12.72812629199899 11.24512629199899
45 1 4 0.0 12.551832123448909 9.922126291998989 12.967126291998989
46 1 9 0.0 16.092832123448908 10.154126291998988 12.10312629199899
47 1 9 0.0 17.96683212344891 8.871126291998989 10.06212629199899
48 1 9 0.0 14.317832123448909 8.986126291998989 11.121126291998989
49 1 9 0.0 13.73983212344891 8.85112629199899 8.741126291998988
50 1 9 0.0 17.81483212344891 11.654126291998988 10.048126291998988
51 1 9 0.0 11.34583212344891 9.67812629199899 8.829126291998989
52 1 9 0.0 10.62483212344891 10.491126291998988 11.208126291998989
53 1 9 0.0 12.44183212344891 11.933126291998988 12.279126291998988
54 1 9 0.0 18.32683212344891 9.11412629199899 13.089126291998989
55 1 9 0.0 20.040832123448908 10.731126291998988 12.779126291998988
56 1 10 0.0 15.956832123448908 12.70012629199899 12.23912629199899
57 1 10 0.0 15.63383212344891 12.76412629199899 10.478126291998988
58 1 10 0.0 12.70383212344891 8.89612629199899 12.624126291998989
59 1 10 0.0 13.31983212344891 10.13012629199899 13.721126291998988
60 1 7 0.0 16.52283212344891 7.936126291998988 12.324126291998988
61 1 7 0.0 13.019832123448909 10.71612629199899 7.657126291998988
62 1 7 0.0 10.81383212344891 8.28912629199899 10.542126291998988
63 1 7 0.0 20.41383212344891 8.365126291998989 12.525126291998989
64 1 7 0.0 16.55883212344891 14.663126291998989 11.292126291998988
65 1 7 0.0 11.250832123448909 9.368126291998989 14.29612629199899
66 1 8 0.0 26.379237055897903 10.064126291998988 10.047126291998989
67 1 6 0.0 24.646237055897902 11.02112629199899 11.300126291998989
68 1 6 0.0 29.0572370558979 11.63012629199899 12.03612629199899
69 1 5 0.0 27.5582370558979 7.833126291998989 11.42112629199899
70 1 5 0.0 24.283237055897903 10.86012629199899 8.429126291998989
71 1 5 0.0 22.441237055897904 8.352126291998989 10.304126291998989
72 1 5 0.0 30.3892370558979 8.209126291998988 11.88212629199899
73 1 8 0.0 30.821237055897903 10.733126291998989 10.733126291998989
74 1 5 0.0 27.859237055897903 13.920126291998988 11.153126291998989
75 1 5 0.0 21.9622370558979 10.015126291998989 13.570126291998989
76 1 2 0.0 27.294237055897902 10.199126291998988 11.13012629199899
77 1 2 0.0 28.271237055897902 9.02412629199899 11.077126291998988
78 1 1 0.0 25.041237055897902 9.898126291998988 10.515126291998989
79 1 2 0.0 24.121237055897904 9.74212629199899 9.302126291998988
80 1 3 0.0 28.036237055897903 11.54012629199899 11.035126291998989
81 1 2 0.0 22.6542370558979 9.638126291998988 9.72912629199899
82 1 2 0.0 22.271237055897902 10.733126291998989 10.733126291998989
83 1 3 0.0 23.320237055897902 10.94712629199899 11.83812629199899
84 1 2 0.0 29.412237055897904 9.22612629199899 12.073126291998989
85 1 1 0.0 30.050237055897902 10.609126291998988 11.926126291998989
86 1 4 0.0 27.102237055897902 12.72812629199899 11.24512629199899
87 1 4 0.0 23.240237055897904 9.922126291998989 12.967126291998989
88 1 9 0.0 26.781237055897904 10.154126291998988 12.10312629199899
89 1 9 0.0 28.655237055897903 8.871126291998989 10.06212629199899
90 1 9 0.0 25.006237055897902 8.986126291998989 11.121126291998989
91 1 9 0.0 24.428237055897903 8.85112629199899 8.741126291998988
92 1 9 0.0 28.503237055897902 11.654126291998988 10.048126291998988
93 1 9 0.0 22.034237055897904 9.67812629199899 8.829126291998989
94 1 9 0.0 21.313237055897904 10.491126291998988 11.208126291998989
95 1 9 0.0 23.1302370558979 11.933126291998988 12.279126291998988
96 1 9 0.0 29.015237055897902 9.11412629199899 13.089126291998989
97 1 9 0.0 30.729237055897904 10.731126291998988 12.779126291998988
98 1 10 0.0 26.6452370558979 12.70012629199899 12.23912629199899
99 1 10 0.0 26.3222370558979 12.76412629199899 10.478126291998988
100 1 10 0.0 23.3922370558979 8.89612629199899 12.624126291998989
101 1 10 0.0 24.0082370558979 10.13012629199899 13.721126291998988
102 1 7 0.0 27.211237055897904 7.936126291998988 12.324126291998988
103 1 7 0.0 23.708237055897904 10.71612629199899 7.657126291998988
104 1 7 0.0 21.502237055897904 8.28912629199899 10.542126291998988
105 1 7 0.0 31.102237055897902 8.365126291998989 12.525126291998989
106 1 7 0.0 27.2472370558979 14.663126291998989 11.292126291998988
107 1 7 0.0 21.9392370558979 9.368126291998989 14.29612629199899
108 1 8 0.0 37.06764198834689 10.064126291998988 10.047126291998989
109 1 6 0.0 35.334641988346895 11.02112629199899 11.300126291998989
110 1 6 0.0 39.7456419883469 11.63012629199899 12.03612629199899
111 1 5 0.0 38.246641988346894 7.833126291998989 11.42112629199899
112 1 5 0.0 34.971641988346896 10.86012629199899 8.429126291998989
113 1 5 0.0 33.1296419883469 8.352126291998989 10.304126291998989
114 1 5 0.0 41.0776419883469 8.209126291998988 11.88212629199899
115 1 8 0.0 41.5096419883469 10.733126291998989 10.733126291998989
116 1 5 0.0 38.547641988346896 13.920126291998988 11.153126291998989
117 1 5 0.0 32.6506419883469 10.015126291998989 13.570126291998989
118 1 2 0.0 37.9826419883469 10.199126291998988 11.13012629199899
119 1 2 0.0 38.959641988346895 9.02412629199899 11.077126291998988
120 1 1 0.0 35.7296419883469 9.898126291998988 10.515126291998989
121 1 2 0.0 34.8096419883469 9.74212629199899 9.302126291998988
122 1 3 0.0 38.724641988346896 11.54012629199899 11.035126291998989
123 1 2 0.0 33.3426419883469 9.638126291998988 9.72912629199899
124 1 2 0.0 32.959641988346895 10.733126291998989 10.733126291998989
125 1 3 0.0 34.008641988346895 10.94712629199899 11.83812629199899
126 1 2 0.0 40.100641988346894 9.22612629199899 12.073126291998989
127 1 1 0.0 40.7386419883469 10.609126291998988 11.926126291998989
128 1 4 0.0 37.7906419883469 12.72812629199899 11.24512629199899
129 1 4 0.0 33.9286419883469 9.922126291998989 12.967126291998989
130 1 9 0.0 37.46964198834689 10.154126291998988 12.10312629199899
131 1 9 0.0 39.343641988346896 8.871126291998989 10.06212629199899
132 1 9 0.0 35.694641988346895 8.986126291998989 11.121126291998989
133 1 9 0.0 35.1166419883469 8.85112629199899 8.741126291998988
134 1 9 0.0 39.191641988346895 11.654126291998988 10.048126291998988
135 1 9 0.0 32.72264198834689 9.67812629199899 8.829126291998989
136 1 9 0.0 32.0016419883469 10.491126291998988 11.208126291998989
137 1 9 0.0 33.8186419883469 11.933126291998988 12.279126291998988
138 1 9 0.0 39.703641988346895 9.11412629199899 13.089126291998989
139 1 9 0.0 41.417641988346894 10.731126291998988 12.779126291998988
140 1 10 0.0 37.3336419883469 12.70012629199899 12.23912629199899
141 1 10 0.0 37.0106419883469 12.76412629199899 10.478126291998988
142 1 10 0.0 34.0806419883469 8.89612629199899 12.624126291998989
143 1 10 0.0 34.6966419883469 10.13012629199899 13.721126291998988
144 1 7 0.0 37.89964198834689 7.936126291998988 12.324126291998988
145 1 7 0.0 34.39664198834689 10.71612629199899 7.657126291998988
146 1 7 0.0 32.1906419883469 8.28912629199899 10.542126291998988
147 1 7 0.0 41.79064198834689 8.365126291998989 12.525126291998989
148 1 7 0.0 37.935641988346894 14.663126291998989 11.292126291998988
149 1 7 0.0 32.627641988346895 9.368126291998989 14.29612629199899
150 1 6 0.0 45.757046920795894 10.96612629199899 11.90512629199899
151 1 5 0.0 43.63404692079589 9.330126291998988 8.794126291998989
152 1 5 0.0 46.54504692079589 9.718126291998988 8.56212629199899
153 1 5 0.0 47.763046920795894 10.10012629199899 11.08812629199899
154 1 5 0.0 44.711046920795894 12.74512629199899 13.721126291998988
155 1 2 0.0 43.64804692079589 10.733126291998989 10.733126291998989
156 1 2 0.0 44.39304692079589 10.343126291998988 9.455126291998988
157 1 3 0.0 44.52104692079589 11.62312629199899 11.62012629199899
158 1 2 0.0 45.78904692079589 9.80912629199899 9.77012629199899
159 1 1 0.0 46.53504692079589 10.733126291998989 10.733126291998989
160 1 4 0.0 43.845046920795895 11.929126291998989 12.952126291998988
161 1 9 0.0 43.35004692079589 9.82512629199899 11.273126291998988
162 1 9 0.0 44.45104692079589 11.19012629199899 8.760126291998988
163 1 9 0.0 44.74004692079589 12.579126291998989 11.124126291998989
164 1 9 0.0 45.71604692079589 8.79312629199899 10.176126291998989
165 1 9 0.0 46.796046920795895 11.69012629199899 10.265126291998989
166 1 10 0.0 43.65104692079589 11.015126291998989 13.52412629199899
167 1 10 0.0 42.90104692079589 12.464126291998989 12.81512629199899
168 1 7 0.0 42.74904692079589 9.69612629199899 8.62012629199899
169 1 7 0.0 46.616046920795895 10.611126291998989 8.18412629199899
170 1 7 0.0 47.60204692079589 9.145126291998988 11.18412629199899
171 1 7 0.0 45.546046920795895 12.260126291998988 13.836126291998989

Bonds

1 9 1 9
2 1 1 11
3 5 2 7
4 14 2 20
5 5 3 8
6 14 3 21
7 5 4 10
8 14 4 22
9 2 5 11
10 12 6 12
11 14 6 23
12 7 7 8
13 8 7 9
14 6 7 13
15 7 8 10
16 6 8 14
17 11 9 12
18 10 9 15
19 4 10 11
20 6 10 16
21 3 11 17
22 13 12 18
23 13 12 19
24 15 24 34
25 2 24 36
26 1 25 36
27 9 25 41
28 9 26 38
29 1 26 43
30 5 27 35
31 14 27 60
32 5 28 37
33 14 28 61
34 5 29 39
35 14 29 62
36 5 30 42
37 14 30 63
38 2 31 43
39 12 32 44
40 14 32 64
41 12 33 45
42 14 33 65
43 7 34 35
44 8 34 38
45 6 34 46
46 7 35 42
47 6 35 47
48 4 36 37
49 3 36 48
50 7 37 39
51 6 37 49
52 11 38 44
53 10 38 50
54 7 39 40
55 6 39 51
56 8 40 41
57 6 40 52
58 11 41 45
59 10 41 53
60 4 42 43
61 6 42 54
62 3 43 55
63 13 44 56
64 13 44 57
65 13 45 58
66 13 45 59
67 15 66 76
68 2 66 78
69 1 67 78
70 9 67 83
71 9 68 80
72 1 68 85
73 5 69 77
74 14 69 102
75 5 70 79
76 14 70 103
77 5 71 81
78 14 71 104
79 5 72 84
80 14 72 105
81 2 73 85
82 12 74 86
83 14 74 106
84 12 75 87
85 14 75 107
86 7 76 77
87 8 76 80
88 6 76 88
89 7 77 84
90 6 77 89
91 4 78 79
92 3 78 90
93 7 79 81
94 6 79 91
95 11 80 86
96 10 80 92
97 7 81 82
98 6 81 93
99 8 82 83
100 6 82 94
101 11 83 87
102 10 83 95
103 4 84 85
104 6 84 96
105 3 85 97
106 13 86 98
107 13 86 99
108 13 87 100
109 13 87 101
110 15 108 118
111 2 108 120
112 1 109 120
113 9 109 125
114 9 110 122
115 1 110 127
116 5 111 119
117 14 111 144
118 5 112 121
119 14 112 145
120 5 113 123
121 14 113 146
122 5 114 126
123 14 114 147
124 2 115 127
125 12 116 128
126 14 116 148
127 12 117 129
128 14 117 149
129 7 118 119
130 8 118 122
131 6 118 130
132 7 119 126
133 6 119 131
134 4 120 121
135 3 120 132
136 7 121 123
137 6 121 133
138 11 122 128
139 10 122 134
140 7 123 124
141 6 123 135
142 8 124 125
143 6 124 136
144 11 125 129
145 10 125 137
146 4 126 127
147 6 126 138
148 3 127 139
149 13 128 140
150 13 128 141
151 13 129 142
152 13 129 143
153 9 150 157
154 1 150 159
155 5 151 156
156 14 151 168
157 5 152 158
158 14 152 169
159 16 153 159
160 14 153 170
161 12 154 160
162 14 154 171
163 7 155 156
164 8 155 157
165 6 155 161
166 7 156 158
167 6 156 162
168 11 157 160
169 10 157 163
170 4 158 159
171 6 158 164
172 3 159 165
173 13 160 166
174 13 160 167
175 15 5 40
176 15 31 82
177 15 73 124
178 15 115 155

Angles

1 1 1 11 5
2 1 24 36 25
3 1 26 43 31
4 1 66 78 67
5 1 68 85 73
6 1 108 120 109
7 1 110 127 115
8 2 1 11 17
9 2 25 36 48
10 2 26 43 55
11 2 67 78 90
12 2 68 85 97
13 2 109 120 132
14 2 110 127 139
15 2 150 159 165
16 3 1 11 10
17 3 25 36 37
18 3 26 43 42
19 3 67 78 79
20 3 68 85 84
21 3 109 120 121
22 3 110 127 126
23 3 150 159 158
24 4 5 11 17
25 4 24 36 48
26 4 31 43 55
27 4 66 78 90
28 4 73 85 97
29 4 108 120 132
30 4 115 127 139
31 5 5 11 10
32 5 24 36 37
33 5 31 43 42
34 5 66 78 79
35 5 73 85 84
36 5 108 120 121
37 5 115 127 126
38 6 10 11 17
39 6 37 36 48
40 6 42 43 55
41 6 79 78 90
42 6 84 85 97
43 6 121 120 132
44 6 126 127 139
45 6 158 159 165
46 7 2 7 13
47 7 3 8 14
48 7 4 10 16
49 7 27 35 47
50 7 28 37 49
51 7 29 39 51
52 7 30 42 54
53 7 69 77 89
54 7 70 79 91
55 7 71 81 93
56 7 72 84 96
57 7 111 119 131
58 7 112 121 133
59 7 113 123 135
60 7 114 126 138
61 7 151 156 162
62 7 152 158 164
63 8 4 10 11
64 8 28 37 36
65 8 30 42 43
66 8 70 79 78
67 8 72 84 85
68 8 112 121 120
69 8 114 126 127
70 8 152 158 159
71 9 3 8 7
72 9 2 7 8
73 9 4 10 8
74 9 3 8 10
75 9 27 35 34
76 9 30 42 35
77 9 29 39 37
78 9 28 37 39
79 9 29 39 40
80 9 27 35 42
81 9 69 77 76
82 9 72 84 77
83 9 71 81 79
84 9 70 79 81
85 9 71 81 82
86 9 69 77 84
87 9 111 119 118
88 9 114 126 119
89 9 113 123 121
90 9 112 121 123
91 9 113 123 124
92 9 111 119 126
93 9 151 156 155
94 9 152 158 156
95 9 151 156 158
96 10 11 10 16
97 10 36 37 49
98 10 43 42 54
99 10 78 79 91
100 10 85 84 96
101 10 120 121 133
102 10 127 126 138
103 10 159 158 164
104 11 7 8 14
105 11 8 7 13
106 11 8 10 16
107 11 10 8 14
108 11 34 35 47
109 11 35 34 46
110 11 35 42 54
111 11 37 39 51
112 11 39 37 49
113 11 39 40 52
114 11 40 39 51
115 11 42 35 47
116 11 76 77 89
117 11 77 76 88
118 11 77 84 96
119 11 79 81 93
120 11 81 79 91
121 11 81 82 94
122 11 82 81 93
123 11 84 77 89
124 11 118 119 131
125 11 119 118 130
126 11 119 126 138
127 11 121 123 135
128 11 123 121 133
129 11 123 124 136
130 11 124 123 135
131 11 126 119 131
132 11 155 156 162
133 11 156 155 161
134 11 156 158 164
135 11 158 156 162
136 12 8 10 11
137 12 36 37 39
138 12 35 42 43
139 12 78 79 81
140 12 77 84 85
141 12 120 121 123
142 12 119 126 127
143 12 156 158 159
144 13 7 8 10
145 13 34 35 42
146 13 37 39 40
147 13 76 77 84
148 13 79 81 82
149 13 118 119 126
150 13 121 123 124
151 13 155 156 158
152 14 2 7 9
153 15 9 7 13
154 15 38 34 46
155 15 41 40 52
156 15 80 76 88
157 15 83 82 94
158 15 122 118 130
159 15 125 124 136
160 15 157 155 161
161 16 8 7 9
162 16 35 34 38
163 16 39 40 41
164 16 77 76 80
165 16 81 82 83
166 16 119 118 122
167 16 123 124 125
168 16 156 155 157
169 17 1 9 15
170 17 25 41 53
171 17 26 38 50
172 17 67 83 95
173 17 68 80 92
174 17 109 125 137
175 17 110 122 134
176 17 150 157 163
177 18 1 9 7
178 18 26 38 34
179 18 25 41 40
180 18 68 80 76
181 18 67 83 82
182 18 110 122 118
183 18 109 125 124
184 18 150 157 155
185 19 1 9 12
186 19 26 38 44
187 19 25 41 45
188 19 68 80 86
189 19 67 83 87
190 19 110 122 128
191 19 109 125 129
192 19 150 157 160
193 20 7 9 15
194 20 34 38 50
195 20 40 41 53
196 20 76 80 92
197 20 82 83 95
198 20 118 122 134
199 20 124 125 137
200 20 155 157 163
201 21 12 9 15
202 21 44 38 50
203 21 45 41 53
204 21 86 80 92
205 21 87 83 95
206 21 128 122 134
207 21 129 125 137
208 21 160 157 163
209 22 7 9 12
210 22 34 38 44
211 22 40 41 45
212 22 76 80 86
213 22 82 83 87
214 22 118 122 128
215 22 124 125 129
216 22 155 157 160
217 23 6 12 18
218 23 6 12 19
219 23 32 44 56
220 23 32 44 57
221 23 33 45 58
222 23 33 45 59
223 23 74 86 98
224 23 74 86 99
225 23 75 87 100
226 23 75 87 101
227 23 116 128 140
228 23 116 128 141
229 23 117 129 142
230 23 117 129 143
231 23 154 160 166
232 23 154 160 167
233 24 6 12 9
234 24 32 44 38
235 24 33 45 41
236 24 74 86 80
237 24 75 87 83
238 24 116 128 122
239 24 117 129 125
240 24 154 160 157
241 25 18 12 19
242 25 56 44 57
243 25 58 45 59
244 25 98 86 99
245 25 100 87 101
246 25 140 128 141
247 25 142 129 143
248 25 166 160 167
249 26 9 12 18
250 26 9 12 19
251 26 38 44 56
252 26 38 44 57
253 26 41 45 58
254 26 41 45 59
255 26 80 86 98
256 26 80 86 99
257 26 83 87 100
258 26 83 87 101
259 26 122 128 140
260 26 122 128 141
261 26 125 129 142
262 26 125 129 143
263 26 157 160 166
264 26 157 160 167
265 27 7 2 20
266 27 8 3 21
267 27 10 4 22
268 27 35 27 60
269 27 37 28 61
270 27 39 29 62
271 27 42 30 63
272 27 77 69 102
273 27 79 70 103
274 27 81 71 104
275 27 84 72 105
276 27 119 111 144
277 27 121 112 145
278 27 123 113 146
279 27 126 114 147
280 27 156 151 168
281 27 158 152 169
282 28 9 1 11
283 28 36 25 41
284 28 38 26 43
285 28 78 67 83
286 28 80 68 85
287 28 120 109 125
288 28 122 110 127
289 28 157 150 159
290 29 12 6 23
291 29 44 32 64
292 29 45 33 65
293 29 86 74 106
294 29 87 75 107
295 29 128 116 148
296 29 129 117 149
297 29 160 154 171
298 30 11 5 40
299 30 34 24 36
300 30 43 31 82
301 30 76 66 78
302 30 85 73 124
303 30 118 108 120
304 30 127 115 155
305 31 5 40 52
306 31 24 34 46
307 31 31 82 94
308 31 66 76 88
309 31 73 124 136
310 31 108 118 130
311 31 115 155 161
312 32 24 34 35
313 32 5 40 39
314 32 66 76 77
315 32 31 82 81
316 32 108 118 119
317 32 73 124 123
318 32 115 155 156
319 33 24 34 38
320 33 5 40 41
321 33 66 76 80
322 33 31 82 83
323 33 108 118 122
324 33 73 124 125
325 33 115 155 157
326 34 150 159 153
327 35 153 159 165
328 36 153 159 158
329 37 159 153 170

Dihedrals

1 1 5 11 1 9
2 1 24 36 25 41
3 1 31 43 26 38
4 1 66 78 67 83
5 1 73 85 68 80
6 1 108 120 109 125
7 1 115 127 110 122
8 2 9 1 11 17
9 2 41 25 36 48
10 2 38 26 43 55
11 2 83 67 78 90
12 2 80 68 85 97
13 2 125 109 120 132
14 2 122 110 127 139
15 2 157 150 159 165
16 3 9 1 11 10
17 3 37 36 25 41
18 3 38 26 43 42
19 3 79 78 67 83
20 3 80 68 85 84
21 3 121 120 109 125
22 3 122 110 127 126
23 3 157 150 159 158
24 4 1 11 5 40
25 4 25 36 24 34
26 4 26 43 31 82
27 4 67 78 66 76
28 4 68 85 73 124
29 4 109 120 108 118
30 4 110 127 115 155
31 5 17 11 5 40
32 5 34 24 36 48
33 5 55 43 31 82
34 5 76 66 78 90
35 5 97 85 73 124
36 5 118 108 120 132
37 5 139 127 115 155
38 6 10 11 5 40
39 6 34 24 36 37
40 6 42 43 31 82
41 6 76 66 78 79
42 6 84 85 73 124
43 6 118 108 120 121
44 6 126 127 115 155
45 7 1 11 10 4
46 7 25 36 37 28
47 7 26 43 42 30
48 7 67 78 79 70
49 7 68 85 84 72
50 7 109 120 121 112
51 7 110 127 126 114
52 7 150 159 158 152
53 8 1 11 10 16
54 8 25 36 37 49
55 8 26 43 42 54
56 8 67 78 79 91
57 8 68 85 84 96
58 8 109 120 121 133
59 8 110 127 126 138
60 8 150 159 158 164
61 9 1 11 10 8
62 9 25 36 37 39
63 9 26 43 42 35
64 9 67 78 79 81
65 9 68 85 84 77
66 9 109 120 121 123
67 9 110 127 126 119
68 9 150 159 158 156
69 10 5 11 10 16
70 10 24 36 37 49
71 10 31 43 42 54
72 10 66 78 79 91
73 10 73 85 84 96
74 10 108 120 121 133
75 10 115 127 126 138
76 11 5 11 10 8
77 11 24 36 37 39
78 11 31 43 42 35
79 11 66 78 79 81
80 11 73 85 84 77
81 11 108 120 121 123
82 11 115 127 126 119
83 12 4 10 11 17
84 12 28 37 36 48
85 12 30 42 43 55
86 12 70 79 78 90
87 12 72 84 85 97
88 12 112 121 120 132
89 12 114 126 127 139
90 12 152 158 159 165
91 13 16 10 11 17
92 13 48 36 37 49
93 13 54 42 43 55
94 13 90 78 79 91
95 13 96 84 85 97
96 13 132 120 121 133
97 13 138 126 127 139
98 13 164 158 159 165
99 14 8 10 11 17
100 14 39 37 36 48
101 14 35 42 43 55
102 14 81 79 78 90
103 14 77 84 85 97
104 14 123 121 120 132
105 14 119 126 127 139
106 14 156 158 159 165
107 15 13 7 2 20
108 15 14 8 3 21
109 15 16 10 4 22
110 15 47 35 27 60
111 15 49 37 28 61
112 15 51 39 29 62
113 15 54 42 30 63
114 15 89 77 69 102
115 15 91 79 70 103
116 15 93 81 71 104
117 15 96 84 72 105
118 15 131 119 111 144
119 15 133 121 112 145
120 15 135 123 113 146
121 15 138 126 114 147
122 15 162 156 151 168
123 15 164 158 152 169
124 16 3 8 10 11
125 16 29 39 37 36
126 16 27 35 42 43
127 16 71 81 79 78
128 16 69 77 84 85
129 16 113 123 121 120
130 16 111 119 126 127
131 16 151 156 158 159
132 17 11 10 8 14
133 17 36 37 39 51
134 17 43 42 35 47
135 17 78 79 81 93
136 17 85 84 77 89
137 17 120 121 123 135
138 17 127 126 119 131
139 17 159 158 156 162
140 18 7 8 10 11
141 18 36 37 39 40
142 18 34 35 42 43
143 18 78 79 81 82
144 18 76 77 84 85
145 18 120 121 123 124
146 18 118 119 126 127
147 18 155 156 158 159
148 19 2 7 8 14
149 19 3 8 7 13
150 19 3 8 10 16
151 19 4 10 8 14
152 19 27 35 34 46
153 19 27 35 42 54
154 19 28 37 39 51
155 19 29 39 37 49
156 19 29 39 40 52
157 19 30 42 35 47
158 19 69 77 76 88
159 19 69 77 84 96
160 19 70 79 81 93
161 19 71 81 79 91
162 19 71 81 82 94
163 19 72 84 77 89
164 19 111 119 118 130
165 19 111 119 126 138
166 19 112 121 123 135
167 19 113 123 121 133
168 19 113 123 124 136
169 19 114 126 119 131
170 19 151 156 155 161
171 19 151 156 158 164
172 19 152 158 156 162
173 20 4 10 8 7
174 20 2 7 8 10
175 20 30 42 35 34
176 20 28 37 39 40
177 20 72 84 77 76
178 20 70 79 81 82
179 20 114 126 119 118
180 20 112 121 123 124
181 20 152 158 156 155
182 21 13 7 8 14
183 21 14 8 10 16
184 21 46 34 35 47
185 21 47 35 42 54
186 21 49 37 39 51
187 21 51 39 40 52
188 21 88 76 77 89
189 21 89 77 84 96
190 21 91 79 81 93
191 21 93 81 82 94
192 21 130 118 119 131
193 21 131 119 126 138
194 21 133 121 123 135
195 21 135 123 124 136
196 21 161 155 156 162
197 21 162 156 158 164
198 22 7 8 10 16
199 22 10 8 7 13
200 22 34 35 42 54
201 22 37 39 40 52
202 22 40 39 37 49
203 22 42 35 34 46
204 22 76 77 84 96
205 22 79 81 82 94
206 22 82 81 79 91
207 22 84 77 76 88
208 22 118 119 126 138
209 22 121 123 124 136
210 22 124 123 121 133
211 22 126 119 118 130
212 22 155 156 158 164
213 22 158 156 155 161
214 23 9 7 8 10
215 23 37 39 40 41
216 23 38 34 35 42
217 23 79 81 82 83
218 23 80 76 77 84
219 23 121 123 124 125
220 23 122 118 119 126
221 23 157 155 156 158
222 24 3 8 7 9
223 24 27 35 34 38
224 24 29 39 40 41
225 24 69 77 76 80
226 24 71 81 82 83
227 24 111 119 118 122
228 24 113 123 124 125
229 24 151 156 155 157
230 25 9 7 8 14
231 25 38 34 35 47
232 25 41 40 39 51
233 25 80 76 77 89
234 25 83 82 81 93
235 25 122 118 119 131
236 25 125 124 123 135
237 25 157 155 156 162
238 26 9 7 2 20
239 27 1 9 7 8
240 27 26 38 34 35
241 27 25 41 40 39
242 27 68 80 76 77
243 27 67 83 82 81
244 27 110 122 118 119
245 27 109 125 124 123
246 27 150 157 155 156
247 28 8 7 9 15
248 28 35 34 38 50
249 28 39 40 41 53
250 28 77 76 80 92
251 28 81 82 83 95
252 28 119 118 122 134
253 28 123 124 125 137
254 28 156 155 157 163
255 29 8 7 9 12
256 29 35 34 38 44
257 29 39 40 41 45
258 29 77 76 80 86
259 29 81 82 83 87
260 29 119 118 122 128
261 29 123 124 125 129
262 29 156 155 157 160
263 30 1 9 7 2
264 31 2 7 9 15
265 32 2 7 9 12
266 33 1 9 7 13
267 33 26 38 34 46
268 33 25 41 40 52
269 33 68 80 76 88
270 33 67 83 82 94
271 33 110 122 118 130
272 33 109 125 124 136
273 33 150 157 155 161
274 34 13 7 9 15
275 34 46 34 38 50
276 34 52 40 41 53
277 34 88 76 80 92
278 34 94 82 83 95
279 34 130 118 122 134
280 34 136 124 125 137
281 34 161 155 157 163
282 35 12 9 7 13
283 35 44 38 34 46
284 35 45 41 40 52
285 35 86 80 76 88
286 35 87 83 82 94
287 35 128 122 118 130
288 35 129 125 124 136
289 35 160 157 155 161
290 36 7 9 1 11
291 36 34 38 26 43
292 36 36 25 41 40
293 36 76 80 68 85
294 36 78 67 83 82
295 36 118 122 110 127
296 36 120 109 125 124
297 36 155 157 150 159
298 37 11 1 9 15
299 37 43 26 38 50
300 37 36 25 41 53
301 37 85 68 80 92
302 37 78 67 83 95
303 37 127 110 122 134
304 37 120 109 125 137
305 37 159 150 157 163
306 38 11 1 9 12
307 38 43 26 38 44
308 38 36 25 41 45
309 38 85 68 80 86
310 38 78 67 83 87
311 38 127 110 122 128
312 38 120 109 125 129
313 38 159 150 157 160
314 39 6 12 9 7
315 39 32 44 38 34
316 39 33 45 41 40
317 39 74 86 80 76
318 39 75 87 83 82
319 39 116 128 122 118
320 39 117 129 125 124
321 39 154 160 157 155
322 40 7 9 12 18
323 40 7 9 12 19
324 40 34 38 44 56
325 40 34 38 44 57
326 40 40 41 45 58
327 40 40 41 45 59
328 40 76 80 86 98
329 40 76 80 86 99
330 40 82 83 87 100
331 40 82 83 87 101
332 40 118 122 128 140
333 40 118 122 128 141
334 40 124 125 129 142
335 40 124 125 129 143
336 40 155 157 160 166
337 40 155 157 160 167
338 41 1 9 12 6
339 41 25 41 45 33
340 41 26 38 44 32
341 41 67 83 87 75
342 41 68 80 86 74
343 41 109 125 129 117
344 41 110 122 128 116
345 41 150 157 160 154
346 42 1 9 12 18
347 42 1 9 12 19
348 42 25 41 45 58
349 42 25 41 45 59
350 42 26 38 44 56
351 42 26 38 44 57
352 42 67 83 87 100
353 42 67 83 87 101
354 42 68 80 86 98
355 42 68 80 86 99
356 42 109 125 129 142
357 42 109 125 129 143
358 42 110 122 128 140
359 42 110 122 128 141
360 42 150 157 160 166
361 42 150 157 160 167
362 43 6 12 9 15
363 43 32 44 38 50
364 43 33 45 41 53
365 43 74 86 80 92
366 43 75 87 83 95
367 43 116 128 122 134
368 43 117 129 125 137
369 43 154 160 157 163
370 44 15 9 12 18
371 44 15 9 12 19
372 44 50 38 44 56
373 44 50 38 44 57
374 44 53 41 45 58
375 44 53 41 45 59
376 44 92 80 86 98
377 44 92 80 86 99
378 44 95 83 87 100
379 44 95 83 87 101
380 44 134 122 128 140
381 44 134 122 128 141
382 44 137 125 129 142
383 44 137 125 129 143
384 44 163 157 160 166
385 44 163 157 160 167
386 45 9 12 6 23
387 45 38 44 32 64
388 45 41 45 33 65
389 45 80 86 74 106
390 45 83 87 75 107
391 45 122 128 116 148
392 45 125 129 117 149
393 45 157 160 154 171
394 46 18 12 6 23
395 46 19 12 6 23
396 46 56 44 32 64
397 46 57 44 32 64
398 46 58 45 33 65
399 46 59 45 33 65
400 46 98 86 74 106
401 46 99 86 74 106
402 46 100 87 75 107
403 46 101 87 75 107
404 46 140 128 116 148
405 46 141 128 116 148
406 46 142 129 117 149
407 46 143 129 117 149
408 46 166 160 154 171
409 46 167 160 154 171
410 47 36 24 34 46
411 47 11 5 40 52
412 47 78 66 76 88
413 47 43 31 82 94
414 47 120 108 118 130
415 47 85 73 124 136
416 47 127 115 155 161
417 48 35 34 24 36
418 48 11 5 40 39
419 48 77 76 66 78
420 48 43 31 82 81
421 48 119 118 108 120
422 48 85 73 124 123
423 48 127 115 155 156
424 49 5 40 39 37
425 49 24 34 35 42
426 49 31 82 81 79
427 49 66 76 77 84
428 49 73 124 123 121
429 49 108 118 119 126
430 49 115 155 156 158
431 50 24 34 35 27
432 50 5 40 39 29
433 50 66 76 77 69
434 50 31 82 81 71
435 50 108 118 119 111
436 50 73 124 123 113
437 50 115 155 156 151
438 51 5 40 39 51
439 51 24 34 35 47
440 51 31 82 81 93
441 51 66 76 77 89
442 51 73 124 123 135
443 51 108 118 119 131
444 51 115 155 156 162
445 52 5 40 41 25
446 52 24 34 38 26
447 52 31 82 83 67
448 52 66 76 80 68
449 52 73 124 125 109
450 52 108 118 122 110
451 52 115 155 157 150
452 53 5 40 41 53
453 53 24 34 38 50
454 53 31 82 83 95
455 53 66 76 80 92
456 53 73 124 125 137
457 53 108 118 122 134
458 53 115 155 157 163
459 54 5 40 41 45
460 54 24 34 38 44
461 54 31 82 83 87
462 54 66 76 80 86
463 54 73 124 125 129
464 54 108 118 122 128
465 54 115 155 157 160
466 55 153 159 150 157
467 56 150 159 153 170
468 57 165 159 153 170
469 58 158 159 153 170
470 59 152 158 159 153
471 60 153 159 158 164
472 61 153 159 158 156

