LAMMPS data file via write_data, version 29 Oct 2020, timestep = 23370

171 atoms
10 atom types
178 bonds
16 bond types
329 angles
37 angle types
472 dihedrals
61 dihedral types

15.2499232805054 39.61640204980666 xlo xhi
2.629638224589866 13.329203559312568 ylo yhi
9.07209811471909 18.735095490438752 zlo zhi

Masses

1 12.0107
2 12.0107
3 12.0107
4 12.0107
5 15.9994
6 15.9994
7 1.008
8 15.9994
9 1.008
10 1.008

Pair Coeffs # lj/cut/coul/cut

1 0.032 3.564
2 0.032 3.564
3 0.032 3.564
4 0.032 3.564
5 0.192 3.145
6 0.1 2.94
7 0.046 0.4
8 0.1 2.94
9 0.045 2.388
10 0.035 2.388

Bond Coeffs # harmonic

1 360 1.425
2 360 1.395
3 309 1.11
4 222.5 1.48
5 410 1.41
6 309 1.11
7 222.5 1.48
8 222.5 1.5
9 360 1.425
10 309 1.11
11 222.5 1.49
12 428 1.42
13 309 1.11
14 545 0.96
15 360 1.415
16 428 1.4

Angle Coeffs # harmonic

1 90 112
2 45 109.5
3 45 106
4 45 109.5
5 45 105
6 34.5 110.1
7 55 108.9
8 75.7 110.1
9 75.7 110.1
10 34.5 110.1
11 34.5 110.1
12 53.4 111
13 53.4 111
14 75.7 110.1
15 34.5 110.1
16 53.4 111
17 45 109.5
18 45 110
19 45 109
20 34.5 110.1
21 34.5 110.1
22 58.4 113.5
23 55 108.9
24 75.7 110.1
25 35.5 109
26 33.4 110.1
27 50 109
28 95 109.7
29 50 109
30 50 109.2
31 60 109.5
32 45 109.5
33 90 112
34 45 116.5
35 55 108.9
36 75.7 107
37 50 109

Dihedral Coeffs # fourier

1 1 0.41 1 180
2 3 0 1 0 0 2 0 0.284 3 0
3 3 0 1 0 0 2 0 0.2 3 0
4 1 0.05 1 180
5 3 0 1 0 0 2 0 0.284 3 0
6 3 0 1 0 0 2 0 1.6 3 0
7 1 2.75 1 180
8 3 0 1 0 0 2 0 0.2 3 0
9 3 2.65 1 180 0 2 0 0.13 3 180
10 3 0 1 0 0 2 0 0.2 3 0
11 3 0 1 0 0 2 0 0.2 3 0
12 3 0 1 0 0 2 0 0.14 3 0
13 3 0 1 0 0 2 0 0.2 3 0
14 3 0 1 0 0 2 0 0.2 3 0
15 3 0 1 0 0 2 0 0.18 3 0
16 3 0 1 0 0 2 0 0.2 3 0
17 3 0 1 0 0 2 0 0.2 3 0
18 3 0 1 0 0 2 0 0.19 3 180
19 3 0 1 0 0 2 0 0.2 3 0
20 3 0 1 0 0 2 0 0.2 3 0
21 3 0 1 0 0 2 0 0.2 3 0
22 3 0 1 0 0 2 0 0.2 3 0
23 3 0 1 0 0 2 0 0.19 3 180
24 3 0 1 0 0 2 0 0.2 3 0
25 3 0 1 0 0 2 0 0.2 3 0
26 3 0.29 1 0 0.62 2 0 0.05 3 0
27 3 0 1 0 0 2 0 0.31 3 180
28 3 0 1 0 0 2 0 0.2 3 0
29 3 0 1 0 0 2 0 0.2 3 0
30 3 1.36 1 180 0.16 2 0 1.01 3 0
31 3 0 1 0 0 2 0 0.2 3 0
32 3 0 1 0 0 2 0 0.2 3 0
33 3 0 1 0 0 2 0 0.2 3 0
34 3 0 1 0 0 2 0 0.2 3 0
35 3 0 1 0 0 2 0 0.2 3 0
36 3 0 1 0 0 2 0 0.2 3 0
37 3 0 1 0 0 2 0 0.284 3 0
38 3 0 1 0 0 2 0 0.2 3 0
39 3 0 1 0 0 2 0 0.2 3 0
40 3 0 1 0 0 2 0 0.2 3 0
41 3 0.75 1 180 0.17 2 0 0.25 3 180
42 3 0 1 0 0 2 0 0.2 3 0
43 3 0 1 0 0 2 0 0.14 3 0
44 3 0 1 0 0 2 0 0.2 3 0
45 3 0.29 1 0 0.62 2 0 0.05 3 0
46 3 0 1 0 0 2 0 0.18 3 0
47 3 0 1 0 0 2 0 0.284 3 0
48 3 0.13 1 180 0.25 2 180 0.06 3 180
49 3 0 1 0 0 2 0 0.2 3 0
50 3 2.65 1 180 0 2 0 0.13 3 180
51 3 0 1 0 0 2 0 0.2 3 0
52 3 1.36 1 180 0.16 2 0 1.01 3 0
53 3 0 1 0 0 2 0 0.2 3 0
54 3 0 1 0 0 2 0 0.2 3 0
55 3 0.41 1 180 0.89 2 0 0.05 3 0
56 3 1.55 1 0 1.17 2 0 1.07 3 0
57 3 0 1 0 0 2 0 0.18 3 0
58 3 0.29 1 0 0.62 2 0 0.05 3 0
59 3 2.65 1 180 0 2 0 0.13 3 180
60 3 0 1 0 0 2 0 0.14 3 0
61 3 0 1 0 0 2 0 0.2 3 0

Atoms # full

6 1 5 -0.65 16.904882764123524 4.408750356636495 9.208794078529829 0 0 0
23 1 7 0.42 17.64558364759528 3.813083338555356 9.07409811471909 0 0 0
153 1 5 -0.65 39.11432782602222 7.26634888382907 9.730939664095157 0 0 0
64 1 7 0.42 25.167285896017365 8.222103927229108 9.498180654788053 0 0 0
32 1 5 -0.65 25.82361219440723 8.671353171570285 10.035778001683044 0 0 0
170 1 7 0.42 39.60136655959865 8.064781488905112 9.514378712373786 0 0 0
46 1 9 0.09 23.43447921092469 9.489462809011544 9.567091423813707 0 0 0
169 1 7 0.42 38.428317730360924 9.415712906946613 9.673592095418668 0 0 0
60 1 7 0.42 21.26713837029755 10.366583555404297 9.076338564270696 0 0 0
27 1 5 -0.65 20.997339371022207 10.386574869432884 9.997429681094383 0 0 0
54 1 9 0.09 23.040291871095747 11.913618844356478 9.396578524930902 0 0 0
19 1 10 0.09 16.121256008663664 2.9681790627032054 10.46992133770334 0 0 0
12 1 4 0.05 16.253731672699676 4.069295906092684 10.424184112303534 0 0 0
18 1 10 0.09 15.2549232805054 4.55331469612425 10.438592616371498 0 0 0
159 1 1 0.29 38.72069519002632 7.322522547919229 11.073287556760864 0 0 0
24 1 8 -0.36 22.49510840529696 8.293278653710559 10.956595509619529 0 0 0
164 1 9 0.09 36.80386489438698 8.1062507076656 10.620585994188007 0 0 0
34 1 2 0.14 23.108820881541924 9.525096209716764 10.627646426746377 0 0 0
152 1 5 -0.65 38.21558656700042 9.58833911003742 10.593671248879632 0 0 0
35 1 2 0.14 22.131741114915968 10.614519147134063 10.803205139896255 0 0 0
26 1 6 0.04 24.877242427390918 11.04337661190976 11.061321986232537 0 0 0
42 1 2 0.14 22.757655076567556 11.911142940721973 10.469989124138227 0 0 0
30 1 5 -0.65 21.838355799508346 12.956771580068787 10.692810987303119 0 0 0
55 1 9 0.09 24.459031173890683 13.088986132062699 11.030524614357708 0 0 0
9 1 3 0.11 17.05601106427599 4.547539467166881 11.585102228654431 0 0 0
15 1 9 0.09 18.047620502627986 4.04905661580914 11.567058709517497 0 0 0
1 1 6 0.04 17.24679495151708 5.9531658058042565 11.443470596322834 0 0 0
61 1 7 0.42 19.917135106908677 5.892870956523221 11.438780072222745 0 0 0
28 1 5 -0.65 20.304932307612038 6.752417472816984 11.25879919203534 0 0 0
150 1 6 0.04 38.12223049208362 6.14389514890312 11.614224169919217 0 0 0
56 1 10 0.09 24.940019154771694 7.764274778038134 11.67146992148196 0 0 0
143 1 10 0.09 30.08767013491204 7.13882194821295 11.695309360029562 0 0 0
165 1 9 0.09 39.61140204980666 7.582126673472201 11.682670022437712 0 0 0
36 1 1 0.29 21.70063165603787 8.464869224003584 12.090345207408015 0 0 0
44 1 4 0.05 25.35044023083633 8.751247308036659 11.3722379601401 0 0 0
57 1 10 0.09 26.20349219455759 9.00311627484148 12.036289442466249 0 0 0
158 1 2 0.14 37.71507473906738 8.407027089390413 11.178555695891681 0 0 0
25 1 6 0.04 20.63347926235204 9.385930108316321 11.868082452757475 0 0 0
38 1 3 0.11 24.30444685104934 9.806665380889338 11.482194945399874 0 0 0
146 1 7 0.42 29.612675441531596 9.676429604289861 12.059039526502914 0 0 0
47 1 9 0.09 21.805890087905293 10.635225270880115 11.864097388844835 0 0 0
95 1 9 0.09 25.973098045160736 11.185703602131749 12.31334736735376 0 0 0
43 1 1 0.29 23.973810131141473 12.125710144297921 11.292745728048581 0 0 0
63 1 7 0.42 21.58880081808642 12.961286299371137 11.619796384879205 0 0 0
20 1 7 0.42 15.394885290894768 2.631638224589866 12.5919940484015 0 0 0
2 1 5 -0.65 16.191494646636393 2.889528372089343 13.06157493042541 0 0 0
7 1 2 0.14 16.391803813652324 4.275721029270179 12.898952197612028 0 0 0
154 1 5 -0.65 36.24655466164964 4.560978982618534 12.865179096668694 0 0 0
13 1 9 0.09 15.405304173919221 4.783641792848625 12.929529328982598 0 0 0
147 1 7 0.42 34.3743326843388 5.754361002771115 12.418305151013653 0 0 0
171 1 7 0.42 35.49231946611184 5.067968922916896 13.174517861639078 0 0 0
11 1 1 0.29 18.148550726041417 6.439641983927004 12.437830030562226 0 0 0
17 1 9 0.09 19.11934896649953 5.907015519175137 12.360630148218506 0 0 0
49 1 9 0.09 21.89939917389594 6.381062270043471 12.502525348370781 0 0 0
142 1 10 0.09 31.48908348457643 6.332593593041272 12.501772264809945 0 0 0
144 1 7 0.42 32.86740061860871 6.781198950277382 12.756580451529327 0 0 0
114 1 5 -0.65 35.160059226184444 5.967971911902011 12.926836548938466 0 0 0
157 1 3 0.11 37.86449477499748 6.307607408186238 13.008268186557922 0 0 0
5 1 8 -0.36 18.35099721859648 7.816368863469727 12.339526884748306 0 0 0
37 1 2 0.14 21.099400741618044 7.136922285414881 12.358379090399302 0 0 0
72 1 5 -0.65 27.416012725313962 7.049573314777794 12.806515684957013 0 0 0
105 1 7 0.42 27.89216834542485 7.88002675195335 12.878785424696096 0 0 0
129 1 4 0.05 30.76501192896897 7.170798845331474 12.574107157845642 0 0 0
161 1 9 0.09 35.92031388860832 7.094406309780562 12.64087325980454 0 0 0
155 1 2 0.14 36.84380528808397 7.389585492015639 13.181366443789306 0 0 0
48 1 9 0.09 22.324168643349672 8.799750293370813 12.945421983885785 0 0 0
102 1 7 0.42 24.182904006517717 8.726871223994625 13.111964966388033 0 0 0
69 1 5 -0.65 24.797594228068434 7.997697577618424 13.002139084519508 0 0 0
136 1 9 0.09 28.248399380041896 8.118742930538748 13.108511622223595 0 0 0
117 1 5 -0.65 31.479150049729732 8.398050958336334 12.558013874187893 0 0 0
149 1 7 0.42 32.22875638839305 8.331303384887109 13.154029895869234 0 0 0
156 1 2 0.14 37.35854207227419 8.639736004587121 12.592717472770621 0 0 0
162 1 9 0.09 38.26728609945934 8.95392507207925 13.147306981262108 0 0 0
41 1 3 0.11 19.86973557000744 9.542244501635395 13.061649140658774 0 0 0
50 1 9 0.09 23.986643808677503 9.89467408279251 12.542079701895863 0 0 0
113 1 5 -0.65 30.274761244302795 9.680617020499222 12.754183292784637 0 0 0
151 1 5 -0.65 36.395756681748594 9.663852245033702 12.703758985796377 0 0 0
53 1 9 0.09 19.085977906160394 10.309410149273615 12.890532822393919 0 0 0
31 1 8 -0.36 23.52224712774943 12.16123058244922 12.612160049653772 0 0 0
83 1 3 0.11 25.620944814897996 11.250314700401901 13.364020249953256 0 0 0
94 1 9 0.09 25.11186216930617 13.327203559312567 13.220159218639619 0 0 0
14 1 9 0.09 18.19338366083188 4.223209672378363 14.007741638949662 0 0 0
167 1 10 0.09 38.20945140527824 4.239711026654834 13.413231090938838 0 0 0
8 1 2 0.14 17.239868499606363 4.7912035451292985 13.990659559722912 0 0 0
160 1 4 0.05 37.4100584447382 4.9971204841224965 13.552521465385889 0 0 0
16 1 9 0.09 16.58939582376709 6.800735481300877 13.828807374755023 0 0 0
10 1 2 0.14 17.535900740099546 6.223760539117351 13.771115454424574 0 0 0
51 1 9 0.09 19.765594550325478 6.215596785947745 13.738317847784707 0 0 0
96 1 9 0.09 26.098255612839306 5.898034967086642 13.879024508454957 0 0 0
84 1 2 0.14 26.644743477957174 6.8597508768885564 13.971509760851404 0 0 0
137 1 9 0.09 29.448350042395152 6.07868920568969 13.842971277446937 0 0 0
111 1 5 -0.65 32.63507213903628 6.896118740600113 13.680927201960973 0 0 0
126 1 2 0.14 34.80145659557075 6.125458797789603 14.281348282770308 0 0 0
163 1 9 0.09 38.80456739351745 6.605767588235401 13.51764425533555 0 0 0
39 1 2 0.14 20.247118384710973 7.200692180618154 13.56562778575135 0 0 0
77 1 2 0.14 25.66836906873012 7.960451335031892 14.110499989552583 0 0 0
125 1 3 0.11 29.96720509005218 7.059838402022159 13.827619040640204 0 0 0
119 1 2 0.14 33.80043790964525 7.204701822366513 14.41222680102206 0 0 0
40 1 2 0.14 19.21039787405412 8.235982224787733 13.382397983980729 0 0 0
52 1 9 0.09 18.62167859281154 8.329699549183728 14.318734821591473 0 0 0
89 1 9 0.09 26.217512835251306 8.92413965292926 14.153464477969717 0 0 0
124 1 2 0.14 28.94972819896336 8.15032814629697 13.968302445679598 0 0 0
132 1 9 0.09 32.13291748831931 8.435909531357325 13.91537186461885 0 0 0
131 1 9 0.09 34.22914842927496 8.143337994827085 14.003240951998432 0 0 0
45 1 4 0.05 20.783569776273257 10.009919015130397 14.141597100014751 0 0 0
65 1 7 0.42 22.46009355591772 9.145090044839964 13.624907736409785 0 0 0
33 1 5 -0.65 21.825569664882323 9.066049129558047 14.340960783768683 0 0 0
67 1 6 0.04 24.98175160202407 10.023863618231434 13.709642887903149 0 0 0
123 1 2 0.14 29.64083794406225 9.455010438020743 13.993272847232802 0 0 0
168 1 7 0.42 36.18916944562102 9.799365002520288 13.631421646896573 0 0 0
58 1 10 0.09 21.2319945453856 10.98860428199962 13.871059908013994 0 0 0
70 1 5 -0.65 22.466674576202927 10.81244177617821 14.39314396708371 0 0 0
75 1 5 -0.65 27.678769742889962 10.325116602687553 14.137349144832568 0 0 0
135 1 9 0.09 28.902158182642733 10.266192233949186 14.161903514871963 0 0 0
87 1 4 0.05 26.79745468856217 11.43173710805147 14.260128746423591 0 0 0
82 1 2 0.14 24.624604667053084 12.363240869489534 13.47600303745494 0 0 0
100 1 10 0.09 27.342552336411572 12.357164510874961 13.979856240717314 0 0 0
3 1 5 -0.65 16.59040148133143 4.616750685886138 15.229957262960466 0 0 0
21 1 7 0.42 15.764416625576873 5.105911448993359 15.221544948135431 0 0 0
138 1 9 0.09 34.35926411695259 5.173151559194774 14.64145484040808 0 0 0
139 1 9 0.09 36.75417238539702 5.619929884635996 15.007721126235849 0 0 0
166 1 10 0.09 37.18072869619467 5.084099754661104 14.63508438384772 0 0 0
22 1 7 0.42 19.226996974848763 6.197568346098967 14.735784095734372 0 0 0
4 1 5 -0.65 18.40488819948575 6.691469637350392 14.778194892165473 0 0 0
88 1 9 0.09 24.338021782897687 6.839088187586192 15.320181796508006 0 0 0
85 1 1 0.29 27.53241066634318 6.801504431257409 15.159290487088597 0 0 0
97 1 9 0.09 28.254416271784436 5.963374423811448 15.067934057713385 0 0 0
127 1 1 0.29 36.006999897450626 6.436784455353367 15.088849925878302 0 0 0
29 1 5 -0.65 21.037160785691228 7.513409850813514 14.690856944386766 0 0 0
76 1 2 0.14 24.89966778594575 7.795792317580161 15.357208458216764 0 0 0
109 1 6 0.04 30.863661530248283 7.126763846731037 14.934090705623094 0 0 0
115 1 8 -0.36 36.52155131021281 7.6120450270740925 14.541105064860544 0 0 0
62 1 7 0.42 21.458035594620153 8.364725012554816 14.550404495799913 0 0 0
66 1 8 -0.36 23.97611178249184 8.861015833214903 15.477907140389549 0 0 0
73 1 8 -0.36 28.212149212796223 8.01965492045549 15.168771834224088 0 0 0
120 1 1 0.29 31.60446549083583 8.34555008478461 14.887315103767843 0 0 0
103 1 7 0.42 22.098849098690792 9.960415662885142 14.638818388565989 0 0 0
78 1 1 0.29 24.591414692809927 10.048752490355549 15.082042312566879 0 0 0
107 1 7 0.42 27.30508448016739 9.574578407969952 14.604951263833584 0 0 0
121 1 2 0.14 30.646704913902507 9.460415021383382 15.077704972728057 0 0 0
59 1 10 0.09 20.21634687740061 10.122921401648089 15.089008648971028 0 0 0
79 1 2 0.14 23.559210359823286 11.101161503759053 15.236415263836696 0 0 0
133 1 9 0.09 31.18900919350189 10.4289096451643 15.082627862329904 0 0 0
101 1 10 0.09 26.468482907544384 11.513308621146841 15.317116760740122 0 0 0
93 1 9 0.09 23.33064820993636 13.197010102005153 14.941230654307045 0 0 0
81 1 2 0.14 24.1179662533016 12.41859384635307 14.861867983184661 0 0 0
68 1 6 0.04 26.723700652918865 6.62661350706393 16.324031531395658 0 0 0
130 1 9 0.09 33.02480504462813 6.477933528411742 16.231911450904164 0 0 0
110 1 6 0.04 35.611637302354595 6.605200161434271 16.45147250147572 0 0 0
80 1 3 0.11 25.85371044195067 7.741804906636173 16.508628130660348 0 0 0
118 1 2 0.14 33.47051810511041 7.413136143765376 15.83336918190778 0 0 0
92 1 9 0.09 26.458172310340178 8.672552411047555 16.529483126298945 0 0 0
108 1 8 -0.36 32.51477682356891 8.451216333177145 15.939072173834168 0 0 0
134 1 9 0.09 35.20606114960683 8.61884372991693 16.158564405411788 0 0 0
112 1 5 -0.65 29.98617526474052 9.304101557573288 16.31357174766906 0 0 0
91 1 9 0.09 23.20171965064865 11.12952796920884 16.28688931534641 0 0 0
90 1 9 0.09 25.47079155943501 10.255728133973749 15.72698991445225 0 0 0
71 1 5 -0.65 25.16890158145519 12.757242428275948 15.738767105168835 0 0 0
122 1 3 0.11 34.72621422134544 7.7151277586947815 16.588848462557834 0 0 0
106 1 7 0.42 23.51949248170969 8.592699028817526 17.516720439751293 0 0 0
145 1 7 0.42 30.637037958253103 9.313332935295154 17.019186753236408 0 0 0
104 1 7 0.42 24.828060888505156 12.79441152926841 16.635453272882962 0 0 0
99 1 10 0.09 24.564179311427605 6.64638686867285 17.829566289762607 0 0 0
116 1 5 -0.65 33.92030321502193 6.77049344811212 18.62523191999041 0 0 0
148 1 7 0.42 34.609479668688266 6.110947189038066 18.733095490438753 0 0 0
86 1 4 0.05 25.16495462035559 7.57970119038232 17.819901484120265 0 0 0
98 1 10 0.09 25.918746028160577 7.531522734480542 18.63327553850767 0 0 0
128 1 4 0.05 34.48338078834684 7.93642199842926 18.042175948509417 0 0 0
74 1 5 -0.65 24.30613012200962 8.68494000654305 18.059208065519048 0 0 0
140 1 10 0.09 33.77775899475462 8.782240129567606 18.17925100760243 0 0 0
141 1 10 0.09 35.4355692405534 8.173705710066015 18.560956823331924 0 0 0

Velocities

6 -0.0044640306044334615 -0.002523490916286286 -0.0031317283905514396
23 -0.01529429054007723 0.001849747997412961 -0.015567499157139906
153 0.008308442459534243 -0.006088102586617068 0.00042609532324560284
64 0.020700839268058498 0.009146113686891715 -0.022011595909944677
32 -4.461926581634753e-05 0.004466930517576026 -0.0035248845532022594
170 -0.004877168031766988 0.021730554755693125 0.012199187588036578
46 -0.018900413533435058 0.011141764709669872 -0.007003050642576664
169 -0.021001985462356827 0.01277422651912364 -0.023353717735868838
60 -0.024497909106196987 0.01296881630447003 -0.003498119817326374
27 -0.0057801845001729905 0.0001335449817336231 -0.003645756938171904
54 -0.020853237645938275 0.012550934717741918 0.03142439063243344
19 -0.005520096610252124 0.024293791476119687 0.012055389655877241
12 -0.0039262809938158515 -0.0012681570260389572 0.010054543856900655
18 -0.01881998393296374 -0.0018733435708153865 0.03521603080016028
159 -0.0032943031841391234 -0.007107690621711594 0.005332370967527436
24 0.00480762192981114 0.003783194132243664 -0.002828755937222536
164 0.0029137548003819076 -0.02475870427866093 -0.018811745553594973
34 0.005139004119083169 0.010584811300015574 -0.006606439595880682
152 -0.007183417157549259 0.0015658197334056875 -0.0009333103867152844
35 0.006172539056446588 -0.004226585687294754 0.00922438241106039
26 -0.0016658633841190353 -0.011569034271367896 -0.004607413686009381
42 0.008012940492429172 -0.006846232707584034 -0.006859145225539559
30 -0.000272299428302444 0.003599859150988014 -0.002859241764888535
55 0.022553774072004117 0.018005481748629006 -0.011069199027980318
9 -0.0005706238053372194 -0.0033009695166315613 -0.0002540106510903646
15 0.021030268976678694 -0.011215137900177974 0.0017444480759105552
1 0.002664110629022334 0.0017237885875111376 -0.0026458953662988893
61 -0.022166874116312556 -0.012711893001411954 0.018500161474870422
28 -0.0018456645571140575 0.00891887118211987 0.005660845558968898
150 -0.004483647584829711 0.007577399703635383 0.0015347908166773684
56 0.0013551522669624592 0.000365452989843959 0.000340150909300509
143 0.004847711361890151 -0.03169835874806944 0.00854565570723441
165 -0.030524669644288155 0.004221879449774891 -0.013320734688202877
36 0.005341560454980469 -0.00013356018007932012 -0.0016477042480323968
44 0.0021864408477584073 0.006162705995686729 -0.005474456581727098
57 -0.025155403997895943 0.026415397969822174 -0.005505639927724072
158 0.003363518231867209 -0.01362454704880199 -0.012229716765135911
25 0.0008467358273815718 0.006030446730469296 -0.0022764557945464765
38 0.008408117502625889 -0.008132476374514959 0.003564735500266385
146 0.004648489231634591 0.016837113417618517 0.00426240373276332
47 -0.011618119071123343 0.030760713559889262 -0.019137385037186223
95 -0.00408368440754602 0.011237356220902377 -0.023380386314591342
43 0.005264365808798999 -0.0012348715451489401 0.0012135269279364535
63 -0.009218753232699078 -0.006482185341664995 -0.00831312130088357
20 0.00849672270804879 0.03293900634000039 0.01854818738197786
2 0.0002446355707238113 0.006546298923419758 -0.006927212554357567
7 0.0033679615496717535 0.0038698965435489956 0.0004743823247311301
154 0.000643618334004612 -0.0016532960688853686 0.002001142845346809
13 -0.038988942444428736 -0.013124446456054763 0.019776854802736055
147 0.008089383158830217 -0.006149900181713472 -0.005877320375606992
171 0.0005645500358850211 0.010466863904839422 -0.0029946784326790126
11 0.001217767872183241 0.009489126419052559 -0.013356701534265424
17 0.0017908124085754774 -0.009413372700917924 0.0031970577374226933
49 -0.015177304966230315 -0.031700657784230764 0.004544549641584499
142 -0.016375949962621837 -0.01007452805823368 -0.03483921162139116
144 0.037801425054900015 -0.006925853336739054 -0.005475373075960289
114 -0.00022183573229214487 -0.0015370871269984048 0.0033780518259478192
157 -0.011221031978707646 7.516135489304228e-05 -0.0014692487412314135
5 0.003539002874343984 -0.004705268192407344 -0.00131596610753963
37 -0.0019305169833881183 -0.00011101567493207736 -0.003439412898149752
72 -0.002692405823163101 -0.000397571130779091 -0.001687816955421745
105 0.011695669519883722 -0.01086307425880628 -0.007950324917225119
129 0.0036260402381480352 0.0006864136816741484 0.0018532217856780996
161 -0.003485885987452117 0.0036814723594027314 -0.002152491765489841
155 0.0021851959957030053 0.007976195324266116 0.009264050862662052
48 0.029411447584676675 0.015205103789456963 0.0010156833288383228
102 -0.006662384168457364 0.006784882452132441 -0.034653370430397915
69 0.0011862297329422095 0.001016357244360736 0.0021819690191401423
136 -0.013980129776938644 0.019339606298908657 -0.018227436600335708
117 -0.002630153014415888 -0.0028526234906163478 -0.003587252893423924
149 0.0028580083048278596 -0.025486311526131632 0.012401696727669128
156 0.0027207211891065878 -0.0008402662073907215 0.003800463752772858
162 -0.004644873626418418 -0.008724332190279814 0.006864240604196206
41 -0.004508865042489813 0.010727699026991517 -0.006317050046010594
50 -0.00375071267204939 -0.016798308583261853 0.018202772745140077
113 0.0018651171267396534 -0.0022370494644267094 0.0032019163732457897
151 0.00015301247763539814 0.008118593643436702 -0.007120367096711839
53 -0.02828302512211278 -0.019069986168601068 -0.009711304569182264
31 0.0034537133231282587 -0.007939722403627744 -0.001224452251732103
83 -0.002513058457497954 0.0009791177804635137 -0.005525735333771257
94 -0.0002187321703602252 -0.00021012389044323607 -0.013384728812280663
14 -0.005000607430119933 -0.012460500820071425 0.02600129907192845
167 0.02599894052386413 -0.006696071862830301 -0.012692420585928009
8 -0.006882990699484937 0.0019340976530664061 -0.00658072980749303
160 -0.0009860235913757586 -0.002662104113399165 -0.01615873608475833
16 0.032358654095954606 0.009382150598165705 0.02500500679794843
10 -0.0007713307681214208 0.005140165143095864 -0.004138891719027524
51 0.01782451171216562 0.0032869562089381833 -0.009361535161718192
96 -0.023945253249168682 0.00978905885094076 -0.03174329824210605
84 0.000174581777224548 0.006649706511423742 -0.00563080247050122
137 -0.011957528296168562 0.03162756170256628 0.012840069909676066
111 0.005262409077291223 -0.0008174098044731551 0.005871654747160393
126 0.010424651088584275 0.004498688070833999 0.0020352250312360093
163 0.0186448032261189 -0.016005262115318622 0.006173347767035861
39 -0.0175000731989102 0.007496234423067066 0.004595126717581171
77 -0.002119916130752122 0.0061908776028635525 0.0068013014588673044
125 0.0012814774543832416 0.004759894264504355 -0.006015445248823001
119 -0.0040323853867024004 0.0010936631657448952 -0.006088655471210196
40 -0.008464433821602352 -0.008432828125890492 -0.006683850229558965
52 -0.016101315965362684 -0.02401850551620116 -0.009773618214388291
89 0.005910349142822202 -0.006323539100188351 0.0022172202252389566
124 0.008813610835961388 -0.00034335499887901507 -0.003320612995173637
132 0.001811638474655588 0.01011117485634512 0.009066535623007578
131 -0.007122324699810943 -0.014382203724391014 0.009499138399132469
45 0.002829638843341338 0.0026266704882167385 -0.005255353735813884
65 0.009949797508578282 0.0009699574275398269 -0.006711668820171896
33 -0.0018415327414874458 0.005003566000060268 0.002813779136040606
67 0.005783497665607179 0.003047910683479783 0.00334327216170025
123 0.0003488150226358222 0.0042937277910389555 -0.014316163065189418
168 -0.017397419186588724 -0.024166982026163256 -0.02776072177761759
58 0.03182855350231328 0.0281871459307395 0.010419925347147413
70 -0.000729345944639186 -0.003992187306706487 -0.004614257895586127
75 -0.0028829573655402784 0.009672724137605586 -0.0062767374576779365
135 0.0032598901727233787 -0.03473828892369194 -0.024957223332740856
87 0.00017942143706895083 0.005478535970619501 0.008461404486313618
82 -0.0022563409620607942 -0.0011939258715562605 -0.00010066092691643188
100 0.010874672557448917 0.0030165372189002535 -0.013384769847287625
3 -0.005548518364545164 -0.00537755733814395 -0.0023231021649975712
21 0.0015223288832298095 -0.0032966004695324314 -0.011342427199138798
138 -0.004245659368101221 0.007917201510055484 -0.004284487679386999
139 -0.004771918432731845 -0.00662862201330098 -0.012689295204183864
166 0.0075370141121043266 -0.014932071969339863 0.014277116655350783
22 -0.003923416543020122 -0.026484940307002467 -0.02063935229991439
4 0.00045076889379011965 -0.004925769172847334 0.005321398755015684
88 0.0026320087287075755 -0.006330797086906928 0.03281103138943978
85 0.007081123074833246 -0.0038176509897008227 0.004414880934340281
97 -0.011150868616091608 0.027189483708425364 0.0029860182615303503
127 -0.003822041238043015 0.0015370284368494227 -0.0007281999883581875
29 0.005482931845962525 -0.009163606508500304 0.002063198627141068
76 0.007066908848146477 -0.004878730391983967 -0.0027358341882480278
109 0.007249141917975537 -0.0028141617287908306 -0.00015151607254664445
115 0.002631954346184031 -0.0035408363999269703 0.0022602841801395825
62 -0.019636438812647476 0.01527975594803133 0.01347192850403448
66 -0.007691493997994989 0.0011718932843458208 -0.0003782648958974178
73 -0.0008373891682593609 0.0007705798984563616 -0.006889041965480546
120 0.005230061430001731 0.004973339329773671 -0.0007964042312713292
103 -0.014454324287300913 0.018440403670166774 -0.03620405630776672
78 0.008619752175144246 0.002814382801688958 0.007153506783375391
107 0.018831164164675628 0.007478387883134696 -0.025879030640172485
121 0.001244513427421484 -0.001068213400075521 -0.0009732247386744199
59 -0.0028634947720243536 0.011208147445379835 -0.00032786933228009206
79 0.007230687319913613 -0.007284598306557054 -0.00423726680830413
133 0.0015468494916689203 0.0351551814985409 -0.02377713233895193
101 0.010631747610889154 -0.0030866417158326425 -0.0014589174280774282
93 -0.01780254357787174 -0.022620825208671758 -0.0370307851176683
81 0.00286927730043647 -0.00021973270280574247 0.000494620959172444
68 0.0017474577310511391 -0.0037214400377443835 -0.003061183852740277
130 -0.013610474319994209 -0.0038721157520226167 -0.022426119256930287
110 5.708015948385596e-05 0.0038125390798915268 -0.0016740547985271996
80 0.0005156380800426419 0.0023341249343640106 -0.0013670311092076526
118 0.007065173919450171 -0.005654999203363573 0.002967993975886777
92 0.01295653954428142 -0.0031453470312066516 4.348899133070107e-05
108 -0.001321432920185049 -0.0038843764256715897 -0.006891444980297378
134 0.04117194107349649 -5.924029435723857e-05 0.0168843192767823
112 9.359832510436646e-05 0.0017769810906242962 0.00420525588293151
91 -0.020369487511573116 -0.010927995653332185 0.011118740146690311
90 0.029335760710810056 0.018751030537759585 -0.01874890336729606
71 0.008588416696557749 0.004971677765921102 -0.0041586566062239575
122 0.005038849671115004 -7.444697491494048e-05 0.0015690079432152618
106 0.011082394939588444 -0.0057798573628913275 -0.0016365075670038514
145 -0.02036572349695916 0.011195483359600869 -0.014542626977395112
104 -0.007347103140103278 0.014696430333005791 -0.011436849639095036
99 0.0214342554025484 0.014303925284111934 0.0024519402120129078
116 -8.808768150350645e-05 -0.008613440685918997 -0.002848111294652268
148 -0.0011213838642995686 0.0038582877846208164 -0.00573286303838541
86 0.006280708388129432 -0.004318000866663756 -0.0029922354870043685
98 -0.000616554299365718 -0.006334376160207664 -0.007353858989397616
128 -0.0033904662607995126 0.01231412051824098 0.005751255570862669
74 0.0014693512331359568 -0.007100319876097465 -0.0049079395263321585
140 -0.009516927545987208 -0.006876235780114096 0.025066512353418106
141 0.004816110092502579 -0.026362594666114306 -0.023920131907830253

Bonds

1 12 6 12
2 14 6 23
3 16 153 159
4 14 153 170
5 12 32 44
6 14 32 64
7 5 27 35
8 14 27 60
9 13 12 18
10 13 12 19
11 3 159 165
12 15 24 34
13 2 24 36
14 7 34 35
15 8 34 38
16 6 34 46
17 5 152 158
18 14 152 169
19 7 35 42
20 6 35 47
21 9 26 38
22 1 26 43
23 4 42 43
24 6 42 54
25 5 30 42
26 14 30 63
27 11 9 12
28 10 9 15
29 9 1 9
30 1 1 11
31 5 28 37
32 14 28 61
33 9 150 157
34 1 150 159
35 4 36 37
36 3 36 48
37 13 44 56
38 13 44 57
39 4 158 159
40 6 158 164
41 1 25 36
42 9 25 41
43 11 38 44
44 10 38 50
45 3 43 55
46 5 2 7
47 14 2 20
48 7 7 8
49 8 7 9
50 6 7 13
51 12 154 160
52 14 154 171
53 3 11 17
54 5 114 126
55 14 114 147
56 11 157 160
57 10 157 163
58 2 5 11
59 15 5 40
60 7 37 39
61 6 37 49
62 5 72 84
63 14 72 105
64 13 129 142
65 13 129 143
66 7 155 156
67 8 155 157
68 6 155 161
69 5 69 77
70 14 69 102
71 12 117 129
72 14 117 149
73 7 156 158
74 6 156 162
75 11 41 45
76 10 41 53
77 5 113 123
78 14 113 146
79 5 151 156
80 14 151 168
81 2 31 43
82 15 31 82
83 11 83 87
84 10 83 95
85 7 8 10
86 6 8 14
87 13 160 166
88 13 160 167
89 4 10 11
90 6 10 16
91 4 84 85
92 6 84 96
93 5 111 119
94 14 111 144
95 4 126 127
96 6 126 138
97 7 39 40
98 6 39 51
99 7 77 84
100 6 77 89
101 11 125 129
102 10 125 137
103 7 119 126
104 6 119 131
105 8 40 41
106 6 40 52
107 8 124 125
108 6 124 136
109 13 45 58
110 13 45 59
111 12 33 45
112 14 33 65
113 1 67 78
114 9 67 83
115 7 123 124
116 6 123 135
117 5 70 79
118 14 70 103
119 12 75 87
120 14 75 107
121 13 87 100
122 13 87 101
123 8 82 83
124 6 82 94
125 5 3 8
126 14 3 21
127 5 4 10
128 14 4 22
129 3 85 97
130 3 127 139
131 5 29 39
132 14 29 62
133 7 76 77
134 8 76 80
135 6 76 88
136 1 109 120
137 9 109 125
138 2 115 127
139 15 115 155
140 15 66 76
141 2 66 78
142 2 73 85
143 15 73 124
144 4 120 121
145 3 120 132
146 4 78 79
147 3 78 90
148 7 121 123
149 6 121 133
150 7 79 81
151 6 79 91
152 7 81 82
153 6 81 93
154 9 68 80
155 1 68 85
156 9 110 122
157 1 110 127
158 11 80 86
159 10 80 92
160 7 118 119
161 8 118 122
162 6 118 130
163 15 108 118
164 2 108 120